hwloc/linux: Ignoring PCI device with non-16bit domain.
Pass --enable-32bits-pci-domain to configure to support such devices
(warning: it would break the library ABI, don't enable unless really needed).
 DBCSR| CPU Multiplication driver                                           XSMM
 DBCSR| Multrec recursion limit                                              512
 DBCSR| Multiplication stack size                                           1000
 DBCSR| Maximum elements for images                                    UNLIMITED
 DBCSR| Multiplicative factor virtual images                                   1
 DBCSR| Use multiplication densification                                       T
 DBCSR| Multiplication size stacks                                             3
 DBCSR| Use memory pool for CPU allocation                                     F
 DBCSR| Number of 3D layers                                               SINGLE
 DBCSR| Use MPI memory allocation                                              F
 DBCSR| Use RMA algorithm                                                      F
 DBCSR| Use Communication thread                                               T
 DBCSR| Communication thread load                                             87
 DBCSR| MPI: My node id                                                        0
 DBCSR| MPI: Number of nodes                                                  14
 DBCSR| OMP: Current number of threads                                         1
 DBCSR| OMP: Max number of threads                                             1
 DBCSR| Split modifier for TAS multiplication algorithm                  1.0E+00


  **** **** ******  **  PROGRAM STARTED AT               2023-12-19 17:44:38.162
 ***** ** ***  *** **   PROGRAM STARTED ON                           Workstation
 **    ****   ******    PROGRAM STARTED BY                                   max
 ***** **    ** ** **   PROGRAM PROCESS ID                                222823
  **** **  *******  **  PROGRAM STARTED IN /home/max/Sync/PhD_TUM/Code/CP2K/Mole
                                           culesAndData/Pyrazine/PBE/cc-TZ2VP/Li
                                           near_Coupling_Constants/vector=2sign=
                                           -

 CP2K| version string:                                       CP2K version 2022.2
 CP2K| source code revision number:                                  git:a95ec40
 CP2K| cp2kflags: omp libint fftw3 libxc elpa parallel mpi3 scalapack cosma xsmm
 CP2K|             spglib sirius libvori libbqb
 CP2K| is freely available from                            https://www.cp2k.org/
 CP2K| Program compiled at                         Di 11. Okt 13:08:16 CEST 2022
 CP2K| Program compiled on                                           Workstation
 CP2K| Program compiled for                                                local
 CP2K| Data directory path                            /home/max/cp2k-2022.2/data
 CP2K| Input file name                                            input_file.inp

 GLOBAL| Force Environment number                                              1
 GLOBAL| Basis set file name                                           HFX_BASIS
 GLOBAL| Potential file name                                      GTH_POTENTIALS
 GLOBAL| MM Potential file name                                     MM_POTENTIAL
 GLOBAL| Coordinate file name                                   Pyrazine_opt.xyz
 GLOBAL| Method name                                                        CP2K
 GLOBAL| Project name                                 Pyrazine_TZV2P-GTH_Geo_OPT
 GLOBAL| Run type                                                   ENERGY_FORCE
 GLOBAL| FFT library                                                       FFTW3
 GLOBAL| Diagonalization library                                            ELPA
 GLOBAL| Minimum number of eigenvectors for ELPA usage                        16
 GLOBAL| Orthonormality check for eigenvectors                          DISABLED
 GLOBAL| Matrix multiplication library                                     COSMA
 GLOBAL| All-to-all communication in single precision                          F
 GLOBAL| FFTs using library dependent lengths                                  F
 GLOBAL| Grid backend                                                       AUTO
 GLOBAL| Global print level                                               MEDIUM
 GLOBAL| MPI I/O enabled                                                       T
 GLOBAL| Total number of message passing processes                            14
 GLOBAL| Number of threads for this process                                    1
 GLOBAL| This output is from process                                           0
 GLOBAL| Stack size for threads created by OpenMP (OMP_STACKSIZE)        default
 GLOBAL| CPU model name                    Intel(R) Xeon(R) W-2275 CPU @ 3.30GHz
 GLOBAL| CPUID                                                              1003

 MEMORY| system memory details [Kb]
 MEMORY|                        rank 0           min           max       average
 MEMORY| MemTotal            131575928     131575928     131575928     131575928
 MEMORY| MemFree               4730308       4730308       4730308       4730308
 MEMORY| Buffers               9821480       9821480       9821480       9821480
 MEMORY| Cached              101413076     101413076     101413076     101413076
 MEMORY| Slab                 11344044      11344044      11344044      11344044
 MEMORY| SReclaimable         10030016      10030016      10030016      10030016
 MEMORY| MemLikelyFree       125994880     125994880     125994880     125994880


 *** Fundamental physical constants (SI units) ***

 *** Literature: B. J. Mohr and B. N. Taylor,
 ***             CODATA recommended values of the fundamental physical
 ***             constants: 2006, Web Version 5.1
 ***             http://physics.nist.gov/constants

 Speed of light in vacuum [m/s]                             2.99792458000000E+08
 Magnetic constant or permeability of vacuum [N/A**2]       1.25663706143592E-06
 Electric constant or permittivity of vacuum [F/m]          8.85418781762039E-12
 Planck constant (h) [J*s]                                  6.62606896000000E-34
 Planck constant (h-bar) [J*s]                              1.05457162825177E-34
 Elementary charge [C]                                      1.60217648700000E-19
 Electron mass [kg]                                         9.10938215000000E-31
 Electron g factor [ ]                                     -2.00231930436220E+00
 Proton mass [kg]                                           1.67262163700000E-27
 Fine-structure constant                                    7.29735253760000E-03
 Rydberg constant [1/m]                                     1.09737315685270E+07
 Avogadro constant [1/mol]                                  6.02214179000000E+23
 Boltzmann constant [J/K]                                   1.38065040000000E-23
 Atomic mass unit [kg]                                      1.66053878200000E-27
 Bohr radius [m]                                            5.29177208590000E-11

 *** Conversion factors ***

 [u] -> [a.u.]                                              1.82288848426455E+03
 [Angstrom] -> [Bohr] = [a.u.]                              1.88972613288564E+00
 [a.u.] = [Bohr] -> [Angstrom]                              5.29177208590000E-01
 [a.u.] -> [s]                                              2.41888432650478E-17
 [a.u.] -> [fs]                                             2.41888432650478E-02
 [a.u.] -> [J]                                              4.35974393937059E-18
 [a.u.] -> [N]                                              8.23872205491840E-08
 [a.u.] -> [K]                                              3.15774647902944E+05
 [a.u.] -> [kJ/mol]                                         2.62549961709828E+03
 [a.u.] -> [kcal/mol]                                       6.27509468713739E+02
 [a.u.] -> [Pa]                                             2.94210107994716E+13
 [a.u.] -> [bar]                                            2.94210107994716E+08
 [a.u.] -> [atm]                                            2.90362800883016E+08
 [a.u.] -> [eV]                                             2.72113838565563E+01
 [a.u.] -> [Hz]                                             6.57968392072181E+15
 [a.u.] -> [1/cm] (wave numbers)                            2.19474631370540E+05
 [a.u./Bohr**2] -> [1/cm]                                   5.14048714338585E+03
 

 CELL_TOP| Volume [angstrom^3]:                                      3375.000000
 CELL_TOP| Vector a [angstrom    15.000     0.000     0.000   |a| =    15.000000
 CELL_TOP| Vector b [angstrom     0.000    15.000     0.000   |b| =    15.000000
 CELL_TOP| Vector c [angstrom     0.000     0.000    15.000   |c| =    15.000000
 CELL_TOP| Angle (b,c), alpha [degree]:                                90.000000
 CELL_TOP| Angle (a,c), beta  [degree]:                                90.000000
 CELL_TOP| Angle (a,b), gamma [degree]:                                90.000000
 CELL_TOP| Numerically orthorhombic:                                         YES

 GENERATE|  Preliminary Number of Bonds generated:                             0
 GENERATE|  Achieved consistency in connectivity generation.

 CELL| Volume [angstrom^3]:                                          3375.000000
 CELL| Vector a [angstrom]:      15.000     0.000     0.000   |a| =    15.000000
 CELL| Vector b [angstrom]:       0.000    15.000     0.000   |b| =    15.000000
 CELL| Vector c [angstrom]:       0.000     0.000    15.000   |c| =    15.000000
 CELL| Angle (b,c), alpha [degree]:                                    90.000000
 CELL| Angle (a,c), beta  [degree]:                                    90.000000
 CELL| Angle (a,b), gamma [degree]:                                    90.000000
 CELL| Numerically orthorhombic:                                             YES

 CELL_REF| Volume [angstrom^3]:                                      3375.000000
 CELL_REF| Vector a [angstrom    15.000     0.000     0.000   |a| =    15.000000
 CELL_REF| Vector b [angstrom     0.000    15.000     0.000   |b| =    15.000000
 CELL_REF| Vector c [angstrom     0.000     0.000    15.000   |c| =    15.000000
 CELL_REF| Angle (b,c), alpha [degree]:                                90.000000
 CELL_REF| Angle (a,c), beta  [degree]:                                90.000000
 CELL_REF| Angle (a,b), gamma [degree]:                                90.000000
 CELL_REF| Numerically orthorhombic:                                         YES

 *******************************************************************************
 *******************************************************************************
 **                                                                           **
 **     #####                         ##              ##                      **
 **    ##   ##            ##          ##              ##                      **
 **   ##     ##                       ##            ######                    **
 **   ##     ##  ##   ##  ##   #####  ##  ##   ####   ##    #####    #####    **
 **   ##     ##  ##   ##  ##  ##      ## ##   ##      ##   ##   ##  ##   ##   **
 **   ##  ## ##  ##   ##  ##  ##      ####     ###    ##   ######   ######    **
 **    ##  ###   ##   ##  ##  ##      ## ##      ##   ##   ##       ##        **
 **     #######   #####   ##   #####  ##  ##  ####    ##    #####   ##        **
 **           ##                                                    ##        **
 **                                                                           **
 **                                                ... make the atoms dance   **
 **                                                                           **
 **            Copyright (C) by CP2K developers group (2000-2022)             **
 **                      J. Chem. Phys. 152, 194103 (2020)                    **
 **                                                                           **
 *******************************************************************************

 DFT| Spin restricted Kohn-Sham (RKS) calculation                            RKS
 DFT| Multiplicity                                                             1
 DFT| Number of spin states                                                    1
 DFT| Charge                                                                   0
 DFT| Self-interaction correction (SIC)                                       NO
 DFT| Cutoffs: density                                              1.000000E-10
 DFT|          gradient                                             1.000000E-10
 DFT|          tau                                                  1.000000E-10
 DFT|          cutoff_smoothing_range                               0.000000E+00
 DFT| XC density smoothing                                                  NONE
 DFT| XC derivatives                                                          PW

 FUNCTIONAL| PBE:
 FUNCTIONAL| J.P.Perdew, K.Burke, M.Ernzerhof, Phys. Rev. Letter, vol. 77, n 18,
 FUNCTIONAL|  pp. 3865-3868, (1996){spin unpolarized}                           


 QS| Method:                                                                 GPW
 QS| Density plane wave grid type                        NON-SPHERICAL FULLSPACE
 QS| Number of grid levels:                                                    5
 QS| Density cutoff [a.u.]:                                                200.0
 QS| Multi grid cutoff [a.u.]: 1) grid level                               200.0
 QS|                           2) grid level                                66.7
 QS|                           3) grid level                                22.2
 QS|                           4) grid level                                 7.4
 QS|                           5) grid level                                 2.5
 QS| Grid level progression factor:                                          3.0
 QS| Relative density cutoff [a.u.]:                                        25.0
 QS| Interaction thresholds: eps_pgf_orb:                                1.0E-32
 QS|                         eps_filter_matrix:                          0.0E+00
 QS|                         eps_core_charge:                            1.0E-14
 QS|                         eps_rho_gspace:                             1.0E-12
 QS|                         eps_rho_rspace:                             1.0E-12
 QS|                         eps_gvg_rspace:                             1.0E-06
 QS|                         eps_ppl:                                    1.0E-02
 QS|                         eps_ppnl:                                   1.0E-08


 ATOMIC KIND INFORMATION

  1. Atomic kind: H                                     Number of atoms:       4

     Orbital Basis Set                                              cc-TZV2P-GTH

       Number of orbital shell sets:                                           6
       Number of orbital shells:                                               6
       Number of primitive Cartesian functions:                                8
       Number of Cartesian basis functions:                                   15
       Number of spherical basis functions:                                   14
       Norm type:                                                              2

       Normalised Cartesian orbitals:

                        Set   Shell   Orbital            Exponent    Coefficient

                          1       1    1s           10.8827241585  -0.2813961187
                                                     3.0968750876  -0.4118397975
                                                     0.9874518162  -0.5339770514

                          2       1    1s            0.3450687533   0.3208775391

                          3       1    1s            0.1492693554   0.1711544067

                          4       1    2px           1.4070000000   2.1842769845
                          4       1    2py           1.4070000000   2.1842769845
                          4       1    2pz           1.4070000000   2.1842769845

                          5       1    2px           0.3880000000   0.4364954740
                          5       1    2py           0.3880000000   0.4364954740
                          5       1    2pz           0.3880000000   0.4364954740

                          6       1    3dx2          1.0570000000   1.8135965626
                          6       1    3dxy          1.0570000000   3.1412413909
                          6       1    3dxz          1.0570000000   3.1412413909
                          6       1    3dy2          1.0570000000   1.8135965626
                          6       1    3dyz          1.0570000000   3.1412413909
                          6       1    3dz2          1.0570000000   1.8135965626

       Atomic covalent radius [Angstrom]:                                  0.320

       Atomic van der Waals radius [Angstrom]:                             1.090

     GTH Potential information for                                    GTH-PBE-q1

       Description:                       Goedecker-Teter-Hutter pseudopotential
                                           Goedecker et al., PRB 54, 1703 (1996)
                                          Hartwigsen et al., PRB 58, 3641 (1998)
                                                      Krack, TCA 114, 145 (2005)

       Gaussian exponent of the core charge distribution:              12.500000
       Electronic configuration (s p d ...):                                   1

       Parameters of the local part of the GTH pseudopotential:

                          rloc        C1          C2          C3          C4
                        0.200000   -4.178900    0.724463

  2. Atomic kind: N                                     Number of atoms:       2

     Orbital Basis Set                                              cc-TZV2P-GTH

       Number of orbital shell sets:                                           6
       Number of orbital shells:                                               9
       Number of primitive Cartesian functions:                                8
       Number of Cartesian basis functions:                                   34
       Number of spherical basis functions:                                   29
       Norm type:                                                              2

       Normalised Cartesian orbitals:

                        Set   Shell   Orbital            Exponent    Coefficient

                          1       1    2s            7.6227447102   1.1683362138
                                                     2.7970605447   0.5851340275
                                                     0.9909765447  -0.9621671222

                          1       2    3px           7.6227447102  -1.8749585227
                                                     2.7970605447  -1.7143128677
                                                     0.9909765447  -0.9522024194
                          1       2    3py           7.6227447102  -1.8749585227
                                                     2.7970605447  -1.7143128677
                                                     0.9909765447  -0.9522024194
                          1       2    3pz           7.6227447102  -1.8749585227
                                                     2.7970605447  -1.7143128677
                                                     0.9909765447  -0.9522024194

                          2       1    2s            0.3417314862   0.3185472343

                          2       2    3px           0.3417314862   0.3724314364
                          2       2    3py           0.3417314862   0.3724314364
                          2       2    3pz           0.3417314862   0.3724314364

                          3       1    2s            0.1116822743   0.1376886936

                          3       2    3px           0.1116822743   0.0920280881
                          3       2    3py           0.1116822743   0.0920280881
                          3       2    3pz           0.1116822743   0.0920280881

                          4       1    3dx2          1.6540000000   3.9705127077
                          4       1    3dxy          1.6540000000   6.8771297418
                          4       1    3dxz          1.6540000000   6.8771297418
                          4       1    3dy2          1.6540000000   3.9705127077
                          4       1    3dyz          1.6540000000   6.8771297418
                          4       1    3dz2          1.6540000000   3.9705127077

                          5       1    3dx2          0.4690000000   0.4374837549
                          5       1    3dxy          0.4690000000   0.7577440909
                          5       1    3dxz          0.4690000000   0.7577440909
                          5       1    3dy2          0.4690000000   0.4374837549
                          5       1    3dyz          0.4690000000   0.7577440909
                          5       1    3dz2          0.4690000000   0.4374837549

                          6       1    4fx3          1.0930000000   1.7982489446
                          6       1    4fx2y         1.0930000000   4.0210068805
                          6       1    4fx2z         1.0930000000   4.0210068805
                          6       1    4fxy2         1.0930000000   4.0210068805
                          6       1    4fxyz         1.0930000000   6.9645882147
                          6       1    4fxz2         1.0930000000   4.0210068805
                          6       1    4fy3          1.0930000000   1.7982489446
                          6       1    4fy2z         1.0930000000   4.0210068805
                          6       1    4fyz2         1.0930000000   4.0210068805
                          6       1    4fz3          1.0930000000   1.7982489446

       Atomic covalent radius [Angstrom]:                                  0.750

       Atomic van der Waals radius [Angstrom]:                             1.550

     GTH Potential information for                                    GTH-PBE-q5

       Description:                       Goedecker-Teter-Hutter pseudopotential
                                           Goedecker et al., PRB 54, 1703 (1996)
                                          Hartwigsen et al., PRB 58, 3641 (1998)
                                                      Krack, TCA 114, 145 (2005)

       Gaussian exponent of the core charge distribution:               6.208322
       Electronic configuration (s p d ...):                               2   3

       Parameters of the local part of the GTH pseudopotential:

                          rloc        C1          C2          C3          C4
                        0.283791  -12.415226    1.868096

       Parameters of the non-local part of the GTH pseudopotential:

                   l      r(l)      h(i,j,l)

                   0    0.255405   13.630263
                   1    0.245495

  3. Atomic kind: C                                     Number of atoms:       4

     Orbital Basis Set                                              cc-TZV2P-GTH

       Number of orbital shell sets:                                           6
       Number of orbital shells:                                               9
       Number of primitive Cartesian functions:                                8
       Number of Cartesian basis functions:                                   34
       Number of spherical basis functions:                                   29
       Norm type:                                                              2

       Normalised Cartesian orbitals:

                        Set   Shell   Orbital            Exponent    Coefficient

                          1       1    2s            5.3685662937   0.9162048416
                                                     1.9830691554   0.4639889320
                                                     0.6978346167  -0.7415850946

                          1       2    3px           5.3685662937  -1.1419917630
                                                     1.9830691554  -1.0896412021
                                                     0.6978346167  -0.6244689575
                          1       2    3py           5.3685662937  -1.1419917630
                                                     1.9830691554  -1.0896412021
                                                     0.6978346167  -0.6244689575
                          1       2    3pz           5.3685662937  -1.1419917630
                                                     1.9830691554  -1.0896412021
                                                     0.6978346167  -0.6244689575

                          2       1    2s            0.2430968816   0.2467428820

                          2       2    3px           0.2430968816   0.2433124449
                          2       2    3py           0.2430968816   0.2433124449
                          2       2    3pz           0.2430968816   0.2433124449

                          3       1    2s            0.0812865018   0.1084985459

                          3       2    3px           0.0812865018   0.0618675802
                          3       2    3py           0.0812865018   0.0618675802
                          3       2    3pz           0.0812865018   0.0618675802

                          4       1    3dx2          1.0970000000   1.9354014160
                          4       1    3dxy          1.0970000000   3.3522135855
                          4       1    3dxz          1.0970000000   3.3522135855
                          4       1    3dy2          1.0970000000   1.9354014160
                          4       1    3dyz          1.0970000000   3.3522135855
                          4       1    3dz2          1.0970000000   1.9354014160

                          5       1    3dx2          0.3180000000   0.2216444782
                          5       1    3dxy          0.3180000000   0.3838994974
                          5       1    3dxz          0.3180000000   0.3838994974
                          5       1    3dy2          0.3180000000   0.2216444782
                          5       1    3dyz          0.3180000000   0.3838994974
                          5       1    3dz2          0.3180000000   0.2216444782

                          6       1    4fx3          0.7610000000   0.7962875534
                          6       1    4fx2y         0.7610000000   1.7805530991
                          6       1    4fx2z         0.7610000000   1.7805530991
                          6       1    4fxy2         0.7610000000   1.7805530991
                          6       1    4fxyz         0.7610000000   3.0840084332
                          6       1    4fxz2         0.7610000000   1.7805530991
                          6       1    4fy3          0.7610000000   0.7962875534
                          6       1    4fy2z         0.7610000000   1.7805530991
                          6       1    4fyz2         0.7610000000   1.7805530991
                          6       1    4fz3          0.7610000000   0.7962875534

       Atomic covalent radius [Angstrom]:                                  0.770

       Atomic van der Waals radius [Angstrom]:                             1.700

     GTH Potential information for                                    GTH-PBE-q4

       Description:                       Goedecker-Teter-Hutter pseudopotential
                                           Goedecker et al., PRB 54, 1703 (1996)
                                          Hartwigsen et al., PRB 58, 3641 (1998)
                                                      Krack, TCA 114, 145 (2005)

       Gaussian exponent of the core charge distribution:               4.364419
       Electronic configuration (s p d ...):                               2   2

       Parameters of the local part of the GTH pseudopotential:

                          rloc        C1          C2          C3          C4
                        0.338471   -8.803674    1.339211

       Parameters of the non-local part of the GTH pseudopotential:

                   l      r(l)      h(i,j,l)

                   0    0.302576    9.622487
                   1    0.291507


 MOLECULE KIND INFORMATION


 All atoms are their own molecule, skipping detailed information


 TOTAL NUMBERS AND MAXIMUM NUMBERS

  Total number of            - Atomic kinds:                                   3
                             - Atoms:                                         10
                             - Shell sets:                                    60
                             - Shells:                                        78
                             - Primitive Cartesian functions:                 80
                             - Cartesian basis functions:                    264
                             - Spherical basis functions:                    230

  Maximum angular momentum of- Orbital basis functions:                        3
                             - Local part of the GTH pseudopotential:          2
                             - Non-local part of the GTH pseudopotential:      0


 MODULE QUICKSTEP:  ATOMIC COORDINATES IN angstrom

 Atom  Kind  Element       X           Y           Z          Z(eff)       Mass
    1   1 H    1       7.481651    9.573167    8.761110       1.0000      1.0079
    2   2 N    7       7.521827    7.500000    6.089167       5.0000     14.0067
    3   2 N    7       7.521827    7.500000    8.910833       5.0000     14.0067
    4   3 C    6       7.488812    8.635934    6.801289       4.0000     12.0107
    5   3 C    6       7.488812    6.364066    6.801289       4.0000     12.0107
    6   3 C    6       7.488812    6.364066    8.198711       4.0000     12.0107
    7   3 C    6       7.488812    8.635934    8.198711       4.0000     12.0107
    8   1 H    1       7.481651    9.573167    6.238890       1.0000      1.0079
    9   1 H    1       7.481651    5.426833    6.238890       1.0000      1.0079
   10   1 H    1       7.481651    5.426833    8.761110       1.0000      1.0079




 SCF PARAMETERS         Density guess:                                   RESTART
                        --------------------------------------------------------
                        max_scf:                                              30
                        max_scf_history:                                       0
                        max_diis:                                              4
                        --------------------------------------------------------
                        eps_scf:                                        1.00E-07
                        eps_scf_history:                                0.00E+00
                        eps_diis:                                       1.00E-01
                        eps_eigval:                                     1.00E-05
                        --------------------------------------------------------
                        level_shift [a.u.]:                             0.000000
                        --------------------------------------------------------
                        Outer loop SCF in use 
                        No variables optimised in outer loop
                        eps_scf                                         1.00E-07
                        max_scf                                               10
                        No outer loop optimization
                        step_size                                       5.00E-01

 PW_GRID| Information for grid number                                          1
 PW_GRID| Grid distributed over                                    14 processors
 PW_GRID| Real space group dimensions                                    14    1
 PW_GRID| the grid is blocked:                                                NO
 PW_GRID| Cutoff [a.u.]                                                    200.0
 PW_GRID| spherical cutoff:                                                   NO
 PW_GRID|   Bounds   1            -96      95                Points:         192
 PW_GRID|   Bounds   2            -96      95                Points:         192
 PW_GRID|   Bounds   3            -96      95                Points:         192
 PW_GRID| Volume element (a.u.^3)  0.3218E-02     Volume (a.u.^3)     22775.6292
 PW_GRID| Grid span                                                    FULLSPACE
 PW_GRID|   Distribution                         Average         Max         Min
 PW_GRID|   G-Vectors                           505563.4      505728      505536
 PW_GRID|   G-Rays                                2633.1        2634        2633
 PW_GRID|   Real Space Points                   505563.4      516096      479232

 PW_GRID| Information for grid number                                          2
 PW_GRID| Number of the reference grid                                         1
 PW_GRID| Grid distributed over                                    14 processors
 PW_GRID| Real space group dimensions                                    14    1
 PW_GRID| the grid is blocked:                                                NO
 PW_GRID| Cutoff [a.u.]                                                     66.7
 PW_GRID| spherical cutoff:                                                   NO
 PW_GRID|   Bounds   1            -54      53                Points:         108
 PW_GRID|   Bounds   2            -54      53                Points:         108
 PW_GRID|   Bounds   3            -54      53                Points:         108
 PW_GRID| Volume element (a.u.^3)  0.1808E-01     Volume (a.u.^3)     22775.6292
 PW_GRID| Grid span                                                    FULLSPACE
 PW_GRID|   Distribution                         Average         Max         Min
 PW_GRID|   G-Vectors                            89979.4       90072       89964
 PW_GRID|   G-Rays                                 833.1         834         833
 PW_GRID|   Real Space Points                    89979.4       93312       81648

 PW_GRID| Information for grid number                                          3
 PW_GRID| Number of the reference grid                                         1
 PW_GRID| Grid distributed over                                    14 processors
 PW_GRID| Real space group dimensions                                    14    1
 PW_GRID| the grid is blocked:                                                NO
 PW_GRID| Cutoff [a.u.]                                                     22.2
 PW_GRID| spherical cutoff:                                                   NO
 PW_GRID|   Bounds   1            -32      31                Points:          64
 PW_GRID|   Bounds   2            -32      31                Points:          64
 PW_GRID|   Bounds   3            -32      31                Points:          64
 PW_GRID| Volume element (a.u.^3)  0.8688E-01     Volume (a.u.^3)     22775.6292
 PW_GRID| Grid span                                                    FULLSPACE
 PW_GRID|   Distribution                         Average         Max         Min
 PW_GRID|   G-Vectors                            18724.6       18816       18624
 PW_GRID|   G-Rays                                 292.6         294         291
 PW_GRID|   Real Space Points                    18724.6       20480       16384

 PW_GRID| Information for grid number                                          4
 PW_GRID| Number of the reference grid                                         1
 PW_GRID| Grid distributed over                                    14 processors
 PW_GRID| Real space group dimensions                                    14    1
 PW_GRID| the grid is blocked:                                                NO
 PW_GRID| Cutoff [a.u.]                                                      7.4
 PW_GRID| spherical cutoff:                                                   NO
 PW_GRID|   Bounds   1            -18      17                Points:          36
 PW_GRID|   Bounds   2            -18      17                Points:          36
 PW_GRID|   Bounds   3            -18      17                Points:          36
 PW_GRID| Volume element (a.u.^3)  0.4882         Volume (a.u.^3)     22775.6292
 PW_GRID| Grid span                                                    FULLSPACE
 PW_GRID|   Distribution                         Average         Max         Min
 PW_GRID|   G-Vectors                             3332.6        3384        3276
 PW_GRID|   G-Rays                                  92.6          94          91
 PW_GRID|   Real Space Points                     3332.6        3888        2592

 PW_GRID| Information for grid number                                          5
 PW_GRID| Number of the reference grid                                         1
 PW_GRID| Grid distributed over                                    14 processors
 PW_GRID| Real space group dimensions                                    14    1
 PW_GRID| the grid is blocked:                                                NO
 PW_GRID| Cutoff [a.u.]                                                      2.5
 PW_GRID| spherical cutoff:                                                   NO
 PW_GRID|   Bounds   1            -12      11                Points:          24
 PW_GRID|   Bounds   2            -12      11                Points:          24
 PW_GRID|   Bounds   3            -12      11                Points:          24
 PW_GRID| Volume element (a.u.^3)   1.648         Volume (a.u.^3)     22775.6292
 PW_GRID| Grid span                                                    FULLSPACE
 PW_GRID|   Distribution                         Average         Max         Min
 PW_GRID|   G-Vectors                              987.4        1008         984
 PW_GRID|   G-Rays                                  41.1          42          41
 PW_GRID|   Real Space Points                      987.4        1152         576

 POISSON| Solver                                                         WAVELET
 POISSON| Wavelet| Scaling function                                           40
 POISSON| Periodicity                                                       NONE

 RS_GRID| Information for grid number                                          1
 RS_GRID|   Bounds   1            -96      95                Points:         192
 RS_GRID|   Bounds   2            -96      95                Points:         192
 RS_GRID|   Bounds   3            -96      95                Points:         192
 RS_GRID| Real space distribution over                                  2 groups
 RS_GRID| Real space distribution along direction                              2
 RS_GRID| Border size                                                         26
 RS_GRID| Real space distribution over                                  7 groups
 RS_GRID| Real space distribution along direction                              3
 RS_GRID| Border size                                                         26
 RS_GRID|   Distribution                         Average         Max         Min
 RS_GRID|   Planes                                 148.0         148         148
 RS_GRID|   Distribution                         Average         Max         Min
 RS_GRID|   Planes                                  79.4          80          79

 RS_GRID| Information for grid number                                          2
 RS_GRID|   Bounds   1            -54      53                Points:         108
 RS_GRID|   Bounds   2            -54      53                Points:         108
 RS_GRID|   Bounds   3            -54      53                Points:         108
 RS_GRID| Real space fully replicated
 RS_GRID| Group size                                                           1

 RS_GRID| Information for grid number                                          3
 RS_GRID|   Bounds   1            -32      31                Points:          64
 RS_GRID|   Bounds   2            -32      31                Points:          64
 RS_GRID|   Bounds   3            -32      31                Points:          64
 RS_GRID| Real space fully replicated
 RS_GRID| Group size                                                           1

 RS_GRID| Information for grid number                                          4
 RS_GRID|   Bounds   1            -18      17                Points:          36
 RS_GRID|   Bounds   2            -18      17                Points:          36
 RS_GRID|   Bounds   3            -18      17                Points:          36
 RS_GRID| Real space fully replicated
 RS_GRID| Group size                                                           1

 RS_GRID| Information for grid number                                          5
 RS_GRID|   Bounds   1            -12      11                Points:          24
 RS_GRID|   Bounds   2            -12      11                Points:          24
 RS_GRID|   Bounds   3            -12      11                Points:          24
 RS_GRID| Real space fully replicated
 RS_GRID| Group size                                                           1

 Number of electrons:                                                         30
 Number of occupied orbitals:                                                 15
 Number of molecular orbitals:                                                15

 Number of orbital functions:                                                230
 Number of independent orbital functions:                                    230

 Extrapolation method: initial_guess


 SCF WAVEFUNCTION OPTIMIZATION

  ----------------------------------- OT ---------------------------------------
  Minimizer      : CG                  : conjugate gradient
  Preconditioner : FULL_SINGLE_INVERSE : inversion of 
                                         H + eS - 2*(Sc)(c^T*H*c+const)(Sc)^T
  Precond_solver : DEFAULT
  Line search    : 2PNT                : 2 energies, one gradient
  stepsize       :    0.08000000                  energy_gap     :    0.08000000
  eps_taylor     :   0.10000E-15                  max_taylor     :             4
  ----------------------------------- OT ---------------------------------------

  Step     Update method      Time    Convergence         Total energy    Change
  ------------------------------------------------------------------------------
     1 OT CG       0.80E-01    1.6     0.00189876       -44.9961839057 -4.50E+01
     2 OT LS       0.14E+00    0.9                      -44.9968968118
     3 OT CG       0.14E+00    1.4     0.00135363       -44.9970611781 -8.77E-04
     4 OT LS       0.81E-01    0.9                      -44.9971716063
     5 OT CG       0.81E-01    1.4     0.00042311       -44.9973155982 -2.54E-04
     6 OT LS       0.12E+00    0.9                      -44.9973479862
     7 OT CG       0.12E+00    1.4     0.00016176       -44.9973512560 -3.57E-05
     8 OT LS       0.16E+00    0.8                      -44.9973578653
     9 OT CG       0.16E+00    1.3     0.00007026       -44.9973583770 -7.12E-06
    10 OT LS       0.10E+00    0.9                      -44.9973590324
    11 OT CG       0.10E+00    1.4     0.00003362       -44.9973592654 -8.88E-07
    12 OT LS       0.14E+00    0.9                      -44.9973595171
    13 OT CG       0.14E+00    1.5     0.00001277       -44.9973595322 -2.67E-07
    14 OT LS       0.12E+00    0.9                      -44.9973595667
    15 OT CG       0.12E+00    1.5     0.00000655       -44.9973595671 -3.49E-08
    16 OT LS       0.78E-01    0.9                      -44.9973595709
    17 OT CG       0.78E-01    1.3     0.00000188       -44.9973595729 -5.80E-09
    18 OT LS       0.15E+00    0.8                      -44.9973595736
    19 OT CG       0.15E+00    1.3     0.00000052       -44.9973595738 -8.89E-10
    20 OT LS       0.13E+00    0.9                      -44.9973595738
    21 OT CG       0.13E+00    1.5     0.00000021       -44.9973595738 -6.15E-11
    22 OT LS       0.11E+00    0.9                      -44.9973595739
    23 OT CG       0.11E+00    1.5     0.00000011       -44.9973595739 -7.74E-12
    24 OT LS       0.79E-01    0.9                      -44.9973595739
    25 OT CG       0.79E-01    1.4     0.00000004       -44.9973595739 -1.58E-12

  *** SCF run converged in    25 steps ***


  Electronic density on regular grids:        -30.0000000000        0.0000000000
  Core density on regular grids:               30.0000000000       -0.0000000000
  Total charge density on r-space grids:       -0.0000000000
  Total charge density g-space grids:          -0.0000000000

  Overlap energy of the core charge distribution:               0.00000187462367
  Self energy of the core charge distribution:               -108.68316522202919
  Core Hamiltonian energy:                                     33.20243054595844
  Hartree energy:                                              43.87352207544544
  Exchange-correlation energy:                                -13.39014884785659

  Total energy:                                               -44.99735957385824

  outer SCF iter =    1 RMS gradient =   0.36E-07 energy =        -44.9973595739
  outer SCF loop converged in   1 iterations or   25 steps


 !-----------------------------------------------------------------------------!
                     Mulliken Population Analysis

 #  Atom  Element  Kind  Atomic population                           Net charge
       1     H        1          0.960637                              0.039363
       2     N        2          5.258744                             -0.258744
       3     N        2          5.258744                             -0.258744
       4     C        3          3.909991                              0.090009
       5     C        3          3.909991                              0.090009
       6     C        3          3.909991                              0.090009
       7     C        3          3.909991                              0.090009
       8     H        1          0.960637                              0.039363
       9     H        1          0.960637                              0.039363
      10     H        1          0.960637                              0.039363
 # Total charge                             30.000000                  0.000000

 !-----------------------------------------------------------------------------!

 !-----------------------------------------------------------------------------!
                           Hirshfeld Charges

  #Atom  Element  Kind  Ref Charge     Population                    Net charge
      1       H      1       1.000          0.549                         0.451
      2       N      2       5.000          5.318                        -0.318
      3       N      2       5.000          5.318                        -0.318
      4       C      3       4.000          4.289                        -0.289
      5       C      3       4.000          4.289                        -0.289
      6       C      3       4.000          4.289                        -0.289
      7       C      3       4.000          4.289                        -0.289
      8       H      1       1.000          0.549                         0.451
      9       H      1       1.000          0.549                         0.451
     10       H      1       1.000          0.549                         0.451

  Total Charge                                                            0.013
 !-----------------------------------------------------------------------------!

 ENERGY| Total FORCE_EVAL ( QS ) energy [a.u.]:              -44.997359573858475

 -------------------------------------------------------------------------------
 -                                                                             -
 -                                DBCSR STATISTICS                             -
 -                                                                             -
 -------------------------------------------------------------------------------
 COUNTER                                    TOTAL       BLAS       SMM       ACC
 flops    14 x    15 x    15                25200       0.0%    100.0%      0.0%
 flops    29 x    15 x    15                78300       0.0%    100.0%      0.0%
 flops    15 x    15 x    15              1066500       0.0%    100.0%      0.0%
 flops    15 x    15 x    14              1612800       0.0%    100.0%      0.0%
 flops    14 x    14 x    15              1646400       0.0%    100.0%      0.0%
 flops    86 x    15 x    14              2022720       0.0%    100.0%      0.0%
 flops   144 x    15 x    14              3386880       0.0%    100.0%      0.0%
 flops    86 x    15 x    15              3405600       0.0%    100.0%      0.0%
 flops    14 x    29 x    15              4092480       0.0%    100.0%      0.0%
 flops    29 x    14 x    15              4092480       0.0%    100.0%      0.0%
 flops    14 x    15 x    14              4139520       0.0%    100.0%      0.0%
 flops    15 x    15 x    29              5011200       0.0%    100.0%      0.0%
 flops   144 x    15 x    15              5702400       0.0%    100.0%      0.0%
 flops    86 x    15 x    29              6284880       0.0%    100.0%      0.0%
 flops   144 x    15 x    29             10523520       0.0%    100.0%      0.0%
 flops    29 x    15 x    14             12862080       0.0%    100.0%      0.0%
 flops    14 x    15 x    29             12862080       0.0%    100.0%      0.0%
 flops    29 x    29 x    15             14835240       0.0%    100.0%      0.0%
 flops    29 x    15 x    29             39964320       0.0%    100.0%      0.0%
 flops inhomo. stacks                           0       0.0%      0.0%      0.0%
 flops total                       133.614600E+06       0.0%    100.0%      0.0%
 flops max/rank                     75.714030E+06       0.0%    100.0%      0.0%
 matmuls inhomo. stacks                         0       0.0%      0.0%      0.0%
 matmuls total                               7204       0.0%    100.0%      0.0%
 number of processed stacks                  3970       0.0%    100.0%      0.0%
 average stack size                                     0.0       1.8       0.0
 marketing flops                   153.487424E+06
 -------------------------------------------------------------------------------
 # multiplications                            398
 max memory usage/rank             410.972160E+06
 # max total images/rank                        7
 # max 3D layers                                1
 # MPI messages exchanged                  105868
 MPI messages size (bytes):
  total size                       183.538208E+06
  min size                           0.000000E+00
  max size                          40.136000E+03
  average size                       1.733651E+03
 MPI breakdown and total messages size (bytes):
             size <=      128               91081                        0
       128 < size <=     8192                6477                 17236872
      8192 < size <=    32768                6222                 96061008
     32768 < size <=   131072                2088                 70240320
    131072 < size <=  4194304                   0                        0
   4194304 < size <= 16777216                   0                        0
  16777216 < size                               0                        0
 -------------------------------------------------------------------------------

 *** WARNING in dbcsr_mm.F:290 :: Using a non-square number of MPI ranks ***
 *** might lead to poor performance. Used ranks: 14 Suggested: 16 25     ***

 -------------------------------------------------------------------------------
 -                                                                             -
 -                      DBCSR MESSAGE PASSING PERFORMANCE                      -
 -                                                                             -
 -------------------------------------------------------------------------------
 ROUTINE             CALLS      AVE VOLUME [Bytes]
 MP_Bcast               20                     12.
 MP_Allreduce         2062                      8.
 MP_Alltoall          1149                   2090.
 MP_ISend            17296                   1615.
 MP_IRecv            16896                   1113.
 -------------------------------------------------------------------------------

 -------------------------------------------------------------------------------
 -                                                                             -
 -                                DBM STATISTICS                               -
 -                                                                             -
 -------------------------------------------------------------------------------
    M  x    N  x    K                                          COUNT     PERCENT
 -------------------------------------------------------------------------------

 -------------------------------------------------------------------------------
 -                                                                             -
 -                                GRID STATISTICS                              -
 -                                                                             -
 -------------------------------------------------------------------------------
 LP    KERNEL             BACKEND                              COUNT     PERCENT
 2     collocate ortho    REF                                  28236      21.13%
 3     collocate ortho    REF                                  19500      14.60%
 1     collocate ortho    REF                                  17680      13.23%
 2     integrate ortho    REF                                  15884      11.89%
 3     integrate ortho    REF                                  11586       8.67%
 4     collocate ortho    REF                                  10348       7.75%
 1     integrate ortho    REF                                   9722       7.28%
 4     integrate ortho    REF                                   6322       4.73%
 0     collocate ortho    REF                                   5252       3.93%
 0     integrate ortho    REF                                   2828       2.12%
 5     collocate ortho    REF                                   2808       2.10%
 5     integrate ortho    REF                                   1910       1.43%
 6     collocate ortho    REF                                    546       0.41%
 6     integrate ortho    REF                                    402       0.30%
 0     collocate general  REF                                    280       0.21%
 0     integrate general  REF                                    140       0.10%
 1     integrate general  REF                                    140       0.10%
 7     integrate ortho    REF                                     21       0.02%
 -------------------------------------------------------------------------------

 MEMORY| Estimated peak process memory [MiB]                                 392

 -------------------------------------------------------------------------------
 ----                             MULTIGRID INFO                            ----
 -------------------------------------------------------------------------------
 count for grid        1:          40279          cutoff [a.u.]          200.00
 count for grid        2:          33892          cutoff [a.u.]           66.67
 count for grid        3:          17938          cutoff [a.u.]           22.22
 count for grid        4:           3266          cutoff [a.u.]            7.41
 count for grid        5:            140          cutoff [a.u.]            2.47
 total gridlevel count  :          95515

 -------------------------------------------------------------------------------
 -                                                                             -
 -                         MESSAGE PASSING PERFORMANCE                         -
 -                                                                             -
 -------------------------------------------------------------------------------

 ROUTINE             CALLS      AVE VOLUME [Bytes]
 MP_Group                5
 MP_Bcast              439                 871926.
 MP_Allreduce         1437                   8911.
 MP_Sync                33
 MP_Alltoall           607               17829105.
 MP_ISendRecv         2132                 237664.
 MP_Wait              3077
 MP_ISend              810                1000812.
 MP_IRecv              810                1002815.
 MP_Recv                 8                   5520.
 -------------------------------------------------------------------------------


 -------------------------------------------------------------------------------
 -                                                                             -
 -                           R E F E R E N C E S                               -
 -                                                                             -
 -------------------------------------------------------------------------------
 
 CP2K version 2022.2, the CP2K developers group (2022).
 CP2K is freely available from https://www.cp2k.org/ .

 Kuehne,Thomas D.; Iannuzzi,Marcella; Del Ben,Mauro;
 Rybkin,Vladimir V.; Seewald,Patrick; Stein,Frederick; Laino,Teodoro;
 Khaliullin,Rustam Z.; Schuett,Ole; Schiffmann,Florian; Golze,Dorothea;
 Wilhelm,Jan; Chulkov,Sergey; Bani-Hashemian,Mohammad Hossein;
 Weber,Valery; Borstnik,Urban; Taillefumier,Mathieu;
 Jakobovits,Alice Shoshana; Lazzaro,Alfio; Pabst,Hans; Mueller,Tiziano;
 Schade,Robert; Guidon,Manuel; Andermatt,Samuel; Holmberg,Nico;
 Schenter,Gregory K.; Hehn,Anna; Bussy,Augustin; Belleflamme,Fabian;
 Tabacchi,Gloria; Gloess,Andreas; Lass,Michael; Bethune,Iain;
 Mundy,Christopher J.; Plessl,Christian; Watkins,Matt;
 VandeVondele,Joost; Krack,Matthias; Hutter,Juerg. 
 The Journal of Chemical Physics, 152 (19), (2020). 
 CP2K: An electronic structure and molecular dynamics software package -
 Quickstep: Efficient and accurate electronic structure calculations.
 https://doi.org/10.1063/5.0007045

 Schuett, Ole; Messmer, Peter; Hutter, Juerg; VandeVondele, Joost. 
 Electronic Structure Calculations on Graphics Processing Units, John
 Wiley & Sons, Ltd, 173-190 (2016). 
 GPU-Accelerated Sparse Matrix-Matrix Multiplication for
 Linear Scaling Density Functional Theory.
 https://doi.org/10.1002/9781118670712.ch8

 Heinecke, A; Henry, G; Hutchinson, M; Pabst, H. 
 Proceedings of Intl. Supercomputing Conference, 981-991 (2016). 
 LIBXSMM: Accelerating Small Matrix Multiplications
 by Runtime Code Generation.
 https://doi.org/10.1109/SC.2016.83

 Borstnik, U; VandeVondele, J; Weber, V; Hutter, J. 
 PARALLEL COMPUTING, 40 (5-6), 47-58 (2014). 
 Sparse matrix multiplication: The distributed block-compressed sparse
 row library.
 https://doi.org/10.1016/j.parco.2014.03.012

 Hutter, J; Iannuzzi, M; Schiffmann, F; VandeVondele, J. 
 WIREs Comput Mol Sci., 4 (1), 15-25 (2014). 
 CP2K: atomistic simulations of condensed matter systems.
 https://doi.org/10.1002/wcms.1159

 Marek, A; Blum, V; Johanni, R; Havu, V; Lang, B; Auckenthaler, T;
 Heinecke, A; Bungartz, H; Lederer, H. 
 Journal of Physics: Condensed Matter, 26 (21), (2014). 
 The ELPA library: scalable parallel eigenvalue solutions for
 electronic structure
 theory and computational science.
 https://doi.org/10.1088/0953-8984/26/21/213201

 Genovese, L; Deutsch, T; Goedecker, S. 
 JOURNAL OF CHEMICAL PHYSICS, 127 (5), 054704 (2007). 
 Efficient and accurate three-dimensional Poisson solver for surface
 problems.
 https://doi.org/10.1063/1.2754685

 Genovese, L; Deutsch, T; Neelov, A; Goedecker, S; Beylkin, G. 
 JOURNAL OF CHEMICAL PHYSICS, 125 (7), 074105 (2006). 
 Efficient solution of Poisson's equation with free boundary conditions.
 https://doi.org/10.1063/1.2335442

 Krack, M. 
 THEORETICAL CHEMISTRY ACCOUNTS, 114 (1-3), 145-152 (2005). 
 Pseudopotentials for H to Kr optimized for gradient-corrected
 exchange-correlation functionals.
 https://doi.org/10.1007/s00214-005-0655-y

 VandeVondele, J; Krack, M; Mohamed, F; Parrinello, M; Chassaing, T;
 Hutter, J. COMPUTER PHYSICS COMMUNICATIONS, 167 (2), 103-128 (2005). 
 QUICKSTEP: Fast and accurate density functional calculations using a
 mixed Gaussian and plane waves approach.
 https://doi.org/10.1016/j.cpc.2004.12.014

 Frigo, M; Johnson, SG. 
 PROCEEDINGS OF THE IEEE, 93 (2), 216-231 (2005). 
 The design and implementation of FFTW3.
 https://doi.org/10.1109/JPROC.2004.840301

 VandeVondele, J; Hutter, J. 
 JOURNAL OF CHEMICAL PHYSICS, 118 (10), 4365-4369 (2003). 
 An efficient orbital transformation method for electronic structure
 calculations.
 https://doi.org/10.1063/1.1543154

 Hartwigsen, C; Goedecker, S; Hutter, J. 
 PHYSICAL REVIEW B, 58 (7), 3641-3662 (1998). 
 Relativistic separable dual-space Gaussian pseudopotentials from H to Rn.
 https://doi.org/10.1103/PhysRevB.58.3641

 Lippert, G; Hutter, J; Parrinello, M. 
 MOLECULAR PHYSICS, 92 (3), 477-487 (1997). 
 A hybrid Gaussian and plane wave density functional scheme.
 https://doi.org/10.1080/002689797170220

 Perdew, JP; Burke, K; Ernzerhof, M. 
 PHYSICAL REVIEW LETTERS, 77 (18), 3865-3868 (1996). 
 Generalized gradient approximation made simple.
 https://doi.org/10.1103/PhysRevLett.77.3865

 Goedecker, S; Teter, M; Hutter, J. 
 PHYSICAL REVIEW B, 54 (3), 1703-1710 (1996). 
 Separable dual-space Gaussian pseudopotentials.
 https://doi.org/10.1103/PhysRevB.54.1703


 -------------------------------------------------------------------------------
 -                                                                             -
 -                                T I M I N G                                  -
 -                                                                             -
 -------------------------------------------------------------------------------
 SUBROUTINE                       CALLS  ASD         SELF TIME        TOTAL TIME
                                MAXIMUM       AVERAGE  MAXIMUM  AVERAGE  MAXIMUM
 CP2K                                 1  1.0    0.022    0.026   32.478   32.479
 qs_forces                            1  2.0    0.000    0.000   32.205   32.205
 qs_energies                          1  3.0    0.000    0.000   31.081   31.081
 scf_env_do_scf                       1  4.0    0.000    0.000   29.414   29.414
 scf_env_do_scf_inner_loop           25  5.0    0.000    0.001   27.896   27.896
 rebuild_ks_matrix                   27  6.9    0.000    0.000   24.270   24.270
 qs_ks_build_kohn_sham_matrix        27  7.9    0.003    0.003   24.270   24.270
 qs_ks_update_qs_env                 27  6.0    0.000    0.000   23.206   23.207
 pw_transfer                        442 10.8    0.031    0.034   19.078   19.757
 fft_wrap_pw1pw2                    442 11.8    0.005    0.005   19.047   19.725
 fft_wrap_pw1pw2_200                278 13.2    1.150    1.228   18.347   19.047
 fft3d_ps                           442 13.8    7.702    8.452   14.770   15.447
 qs_vxc_create                       27  8.9    0.000    0.001   13.040   13.133
 xc_pw_derive                       126 11.9    0.002    0.003    9.851   10.438
 xc_vxc_pw_create                    15  9.9    0.073    0.083    9.185    9.278
 xc_rho_set_and_dset_create          27 10.9    0.104    0.116    7.667    8.584
 pw_poisson_solve                    27  8.9    0.160    0.177    7.526    7.526
 qs_rho_update_rho_low               26  6.0    0.000    0.000    6.375    6.376
 calculate_rho_elec                  26  7.0    0.053    0.056    6.375    6.376
 density_rs2pw                       26  8.0    0.002    0.002    5.502    5.590
 xc_pw_divergence                    15 10.9    0.001    0.001    4.697    5.220
 mp_alltoall_z22v                   442 15.8    3.411    4.599    3.411    4.599
 x_to_yz                            224 15.5    2.297    2.415    3.965    4.405
 yz_to_x                            218 14.1    1.348    1.406    3.090    3.893
 xc_exc_calc                         12 10.0    0.026    0.027    3.854    3.854
 rs_pw_transfer                     209 10.0    0.003    0.003    2.814    2.873
 ps_wavelet_solve                    27  9.9    1.878    2.191    2.756    2.828
 sum_up_and_integrate                15  8.9    0.031    0.037    2.398    2.401
 integrate_v_rspace                  15  9.9    0.000    0.000    2.368    2.371
 potential_pw2rs                     15 10.9    0.003    0.003    2.199    2.203
 pw_gather_p                        218 13.1    1.508    1.984    1.508    1.984
 xc_functional_eval                  27 11.9    0.000    0.000    1.018    1.913
 pbe_lda_eval                        27 12.9    1.018    1.912    1.018    1.912
 pw_scatter_p                       224 14.5    1.583    1.777    1.583    1.777
 mp_sum_d                           813  6.0    0.924    1.539    0.924    1.539
 init_scf_loop                        1  5.0    0.000    0.000    1.518    1.518
 rs_pw_transfer_RS2PW_200            28  9.9    0.858    0.887    1.331    1.385
 scf_post_calculation_gpw             1  4.0    0.000    0.000    1.191    1.191
 write_available_results              1  5.0    0.000    0.000    1.191    1.191
 write_mo_free_results                1  6.0    0.006    0.034    1.191    1.191
 qs_ks_update_qs_env_forces           1  3.0    0.000    0.000    1.065    1.065
 pw_derive                          126 12.9    0.841    0.880    0.841    0.880
 mp_sync                             33  6.9    0.796    0.858    0.796    0.858
 rs_pw_transfer_PW2RS_200            17 12.4    0.522    0.563    0.802    0.846
 mp_alltoall_d54                     27 10.9    0.645    0.788    0.645    0.788
 grid_collocate_task_list            26  8.0    0.671    0.785    0.671    0.785
 qs_scf_loop_print                   25  6.0    0.056    0.761    0.775    0.776
 mp_waitany                         810 11.8    0.595    0.686    0.595    0.686
 fft_wrap_pw1pw2_70                  41 12.0    0.024    0.028    0.580    0.652
 -------------------------------------------------------------------------------

 The number of warnings for this run is : 1
 
 -------------------------------------------------------------------------------
  **** **** ******  **  PROGRAM ENDED AT                 2023-12-19 17:45:11.177
 ***** ** ***  *** **   PROGRAM RAN ON                               Workstation
 **    ****   ******    PROGRAM RAN BY                                       max
 ***** **    ** ** **   PROGRAM PROCESS ID                                222823
  **** **  *******  **  PROGRAM STOPPED IN /home/max/Sync/PhD_TUM/Code/CP2K/Mole
                                           culesAndData/Pyrazine/PBE/cc-TZ2VP/Li
                                           near_Coupling_Constants/vector=2sign=
                                           -
