hwloc/linux: Ignoring PCI device with non-16bit domain.
Pass --enable-32bits-pci-domain to configure to support such devices
(warning: it would break the library ABI, don't enable unless really needed).
 DBCSR| CPU Multiplication driver                                           XSMM
 DBCSR| Multrec recursion limit                                              512
 DBCSR| Multiplication stack size                                           1000
 DBCSR| Maximum elements for images                                    UNLIMITED
 DBCSR| Multiplicative factor virtual images                                   1
 DBCSR| Use multiplication densification                                       T
 DBCSR| Multiplication size stacks                                             3
 DBCSR| Use memory pool for CPU allocation                                     F
 DBCSR| Number of 3D layers                                               SINGLE
 DBCSR| Use MPI memory allocation                                              F
 DBCSR| Use RMA algorithm                                                      F
 DBCSR| Use Communication thread                                               T
 DBCSR| Communication thread load                                             87
 DBCSR| MPI: My node id                                                        0
 DBCSR| MPI: Number of nodes                                                  14
 DBCSR| OMP: Current number of threads                                         1
 DBCSR| OMP: Max number of threads                                             1
 DBCSR| Split modifier for TAS multiplication algorithm                  1.0E+00


  **** **** ******  **  PROGRAM STARTED AT               2023-12-11 13:58:26.107
 ***** ** ***  *** **   PROGRAM STARTED ON                           Workstation
 **    ****   ******    PROGRAM STARTED BY                                   max
 ***** **    ** ** **   PROGRAM PROCESS ID                               1733880
  **** **  *******  **  PROGRAM STARTED IN /home/max/Sync/PhD_TUM/Code/CP2K/Mole
                                           culesAndData/Pyrazine/CAM-B3LYP/cc-TZ
                                           2VP/Vib_Ana/vector=1sign=-

 CP2K| version string:                                       CP2K version 2022.2
 CP2K| source code revision number:                                  git:a95ec40
 CP2K| cp2kflags: omp libint fftw3 libxc elpa parallel mpi3 scalapack cosma xsmm
 CP2K|             spglib sirius libvori libbqb
 CP2K| is freely available from                            https://www.cp2k.org/
 CP2K| Program compiled at                         Di 11. Okt 13:08:16 CEST 2022
 CP2K| Program compiled on                                           Workstation
 CP2K| Program compiled for                                                local
 CP2K| Data directory path                            /home/max/cp2k-2022.2/data
 CP2K| Input file name                                            input_file.inp

 GLOBAL| Force Environment number                                              1
 GLOBAL| Basis set file name                                           HFX_BASIS
 GLOBAL| Potential file name                                      GTH_POTENTIALS
 GLOBAL| MM Potential file name                                     MM_POTENTIAL
 GLOBAL| Coordinate file name                                       Pyrazine.xyz
 GLOBAL| Method name                                                        CP2K
 GLOBAL| Project name                                 Pyrazine_TZV2P-GTH_VIB_ANA
 GLOBAL| Run type                                                   ENERGY_FORCE
 GLOBAL| FFT library                                                       FFTW3
 GLOBAL| Diagonalization library                                            ELPA
 GLOBAL| Minimum number of eigenvectors for ELPA usage                        16
 GLOBAL| Orthonormality check for eigenvectors                          DISABLED
 GLOBAL| Matrix multiplication library                                     COSMA
 GLOBAL| All-to-all communication in single precision                          F
 GLOBAL| FFTs using library dependent lengths                                  F
 GLOBAL| Grid backend                                                       AUTO
 GLOBAL| Global print level                                               MEDIUM
 GLOBAL| MPI I/O enabled                                                       T
 GLOBAL| Total number of message passing processes                            14
 GLOBAL| Number of threads for this process                                    1
 GLOBAL| This output is from process                                           0
 GLOBAL| Stack size for threads created by OpenMP (OMP_STACKSIZE)        default
 GLOBAL| CPU model name                    Intel(R) Xeon(R) W-2275 CPU @ 3.30GHz
 GLOBAL| CPUID                                                              1003

 MEMORY| system memory details [Kb]
 MEMORY|                        rank 0           min           max       average
 MEMORY| MemTotal            131575944     131575944     131575944     131575944
 MEMORY| MemFree              87985912      87985912      87985912      87985912
 MEMORY| Buffers               1357424       1357424       1357424       1357424
 MEMORY| Cached               36317620      36317620      36317620      36317620
 MEMORY| Slab                  1669132       1669132       1669132       1669132
 MEMORY| SReclaimable          1244736       1244736       1244736       1244736
 MEMORY| MemLikelyFree       126905692     126905692     126905692     126905692


 *** Fundamental physical constants (SI units) ***

 *** Literature: B. J. Mohr and B. N. Taylor,
 ***             CODATA recommended values of the fundamental physical
 ***             constants: 2006, Web Version 5.1
 ***             http://physics.nist.gov/constants

 Speed of light in vacuum [m/s]                             2.99792458000000E+08
 Magnetic constant or permeability of vacuum [N/A**2]       1.25663706143592E-06
 Electric constant or permittivity of vacuum [F/m]          8.85418781762039E-12
 Planck constant (h) [J*s]                                  6.62606896000000E-34
 Planck constant (h-bar) [J*s]                              1.05457162825177E-34
 Elementary charge [C]                                      1.60217648700000E-19
 Electron mass [kg]                                         9.10938215000000E-31
 Electron g factor [ ]                                     -2.00231930436220E+00
 Proton mass [kg]                                           1.67262163700000E-27
 Fine-structure constant                                    7.29735253760000E-03
 Rydberg constant [1/m]                                     1.09737315685270E+07
 Avogadro constant [1/mol]                                  6.02214179000000E+23
 Boltzmann constant [J/K]                                   1.38065040000000E-23
 Atomic mass unit [kg]                                      1.66053878200000E-27
 Bohr radius [m]                                            5.29177208590000E-11

 *** Conversion factors ***

 [u] -> [a.u.]                                              1.82288848426455E+03
 [Angstrom] -> [Bohr] = [a.u.]                              1.88972613288564E+00
 [a.u.] = [Bohr] -> [Angstrom]                              5.29177208590000E-01
 [a.u.] -> [s]                                              2.41888432650478E-17
 [a.u.] -> [fs]                                             2.41888432650478E-02
 [a.u.] -> [J]                                              4.35974393937059E-18
 [a.u.] -> [N]                                              8.23872205491840E-08
 [a.u.] -> [K]                                              3.15774647902944E+05
 [a.u.] -> [kJ/mol]                                         2.62549961709828E+03
 [a.u.] -> [kcal/mol]                                       6.27509468713739E+02
 [a.u.] -> [Pa]                                             2.94210107994716E+13
 [a.u.] -> [bar]                                            2.94210107994716E+08
 [a.u.] -> [atm]                                            2.90362800883016E+08
 [a.u.] -> [eV]                                             2.72113838565563E+01
 [a.u.] -> [Hz]                                             6.57968392072181E+15
 [a.u.] -> [1/cm] (wave numbers)                            2.19474631370540E+05
 [a.u./Bohr**2] -> [1/cm]                                   5.14048714338585E+03
 

 CELL_TOP| Volume [angstrom^3]:                                      3375.000000
 CELL_TOP| Vector a [angstrom    15.000     0.000     0.000   |a| =    15.000000
 CELL_TOP| Vector b [angstrom     0.000    15.000     0.000   |b| =    15.000000
 CELL_TOP| Vector c [angstrom     0.000     0.000    15.000   |c| =    15.000000
 CELL_TOP| Angle (b,c), alpha [degree]:                                90.000000
 CELL_TOP| Angle (a,c), beta  [degree]:                                90.000000
 CELL_TOP| Angle (a,b), gamma [degree]:                                90.000000
 CELL_TOP| Numerically orthorhombic:                                         YES

 GENERATE|  Preliminary Number of Bonds generated:                             0
 GENERATE|  Achieved consistency in connectivity generation.

 CELL| Volume [angstrom^3]:                                          3375.000000
 CELL| Vector a [angstrom]:      15.000     0.000     0.000   |a| =    15.000000
 CELL| Vector b [angstrom]:       0.000    15.000     0.000   |b| =    15.000000
 CELL| Vector c [angstrom]:       0.000     0.000    15.000   |c| =    15.000000
 CELL| Angle (b,c), alpha [degree]:                                    90.000000
 CELL| Angle (a,c), beta  [degree]:                                    90.000000
 CELL| Angle (a,b), gamma [degree]:                                    90.000000
 CELL| Numerically orthorhombic:                                             YES

 CELL_REF| Volume [angstrom^3]:                                      3375.000000
 CELL_REF| Vector a [angstrom    15.000     0.000     0.000   |a| =    15.000000
 CELL_REF| Vector b [angstrom     0.000    15.000     0.000   |b| =    15.000000
 CELL_REF| Vector c [angstrom     0.000     0.000    15.000   |c| =    15.000000
 CELL_REF| Angle (b,c), alpha [degree]:                                90.000000
 CELL_REF| Angle (a,c), beta  [degree]:                                90.000000
 CELL_REF| Angle (a,b), gamma [degree]:                                90.000000
 CELL_REF| Numerically orthorhombic:                                         YES

 *******************************************************************************
 *******************************************************************************
 **                                                                           **
 **     #####                         ##              ##                      **
 **    ##   ##            ##          ##              ##                      **
 **   ##     ##                       ##            ######                    **
 **   ##     ##  ##   ##  ##   #####  ##  ##   ####   ##    #####    #####    **
 **   ##     ##  ##   ##  ##  ##      ## ##   ##      ##   ##   ##  ##   ##   **
 **   ##  ## ##  ##   ##  ##  ##      ####     ###    ##   ######   ######    **
 **    ##  ###   ##   ##  ##  ##      ## ##      ##   ##   ##       ##        **
 **     #######   #####   ##   #####  ##  ##  ####    ##    #####   ##        **
 **           ##                                                    ##        **
 **                                                                           **
 **                                                ... make the atoms dance   **
 **                                                                           **
 **            Copyright (C) by CP2K developers group (2000-2022)             **
 **                      J. Chem. Phys. 152, 194103 (2020)                    **
 **                                                                           **
 *******************************************************************************

 DFT| Spin restricted Kohn-Sham (RKS) calculation                            RKS
 DFT| Multiplicity                                                             1
 DFT| Number of spin states                                                    1
 DFT| Charge                                                                   0
 DFT| Self-interaction correction (SIC)                                       NO
 DFT| Cutoffs: density                                              1.000000E-10
 DFT|          gradient                                             1.000000E-10
 DFT|          tau                                                  1.000000E-10
 DFT|          cutoff_smoothing_range                               0.000000E+00
 DFT| XC density smoothing                                                  NN50
 DFT| XC derivatives                                                     SPLINE2

 FUNCTIONAL| HYB_GGA_XC_CAM_B3LYP:
 FUNCTIONAL| [1] T. Yanai, D. P. Tew, and N. C. Handy, Chem. Phys. Lett. 393, 51
 FUNCTIONAL|  (2004), doi: 10.1016/j.cplett.2004.06.011                         
 FUNCTIONAL| Optional external parameters:                                      
 FUNCTIONAL|  * Fraction of Hartree-Fock exchange                               
 FUNCTIONAL|  * Fraction of short-range exact exchange                          
 FUNCTIONAL|  * Range separation parameter                                      
 FUNCTIONAL|  * Fraction of LYP correlation                                     
 FUNCTIONAL| {scale=1.000, spin-unpolarized}                                    


 QS| Method:                                                                 GPW
 QS| Density plane wave grid type                        NON-SPHERICAL FULLSPACE
 QS| Number of grid levels:                                                    5
 QS| Density cutoff [a.u.]:                                                200.0
 QS| Multi grid cutoff [a.u.]: 1) grid level                               200.0
 QS|                           2) grid level                                66.7
 QS|                           3) grid level                                22.2
 QS|                           4) grid level                                 7.4
 QS|                           5) grid level                                 2.5
 QS| Grid level progression factor:                                          3.0
 QS| Relative density cutoff [a.u.]:                                        25.0
 QS| Interaction thresholds: eps_pgf_orb:                                1.0E-32
 QS|                         eps_filter_matrix:                          0.0E+00
 QS|                         eps_core_charge:                            1.0E-14
 QS|                         eps_rho_gspace:                             1.0E-12
 QS|                         eps_rho_rspace:                             1.0E-12
 QS|                         eps_gvg_rspace:                             1.0E-06
 QS|                         eps_ppl:                                    1.0E-02
 QS|                         eps_ppnl:                                   1.0E-08


 ATOMIC KIND INFORMATION

  1. Atomic kind: H                                     Number of atoms:       4

     Orbital Basis Set                                              cc-TZV2P-GTH

       Number of orbital shell sets:                                           6
       Number of orbital shells:                                               6
       Number of primitive Cartesian functions:                                8
       Number of Cartesian basis functions:                                   15
       Number of spherical basis functions:                                   14
       Norm type:                                                              2

       Normalised Cartesian orbitals:

                        Set   Shell   Orbital            Exponent    Coefficient

                          1       1    1s           10.8827241585  -0.2813961187
                                                     3.0968750876  -0.4118397975
                                                     0.9874518162  -0.5339770514

                          2       1    1s            0.3450687533   0.3208775391

                          3       1    1s            0.1492693554   0.1711544067

                          4       1    2px           1.4070000000   2.1842769845
                          4       1    2py           1.4070000000   2.1842769845
                          4       1    2pz           1.4070000000   2.1842769845

                          5       1    2px           0.3880000000   0.4364954740
                          5       1    2py           0.3880000000   0.4364954740
                          5       1    2pz           0.3880000000   0.4364954740

                          6       1    3dx2          1.0570000000   1.8135965626
                          6       1    3dxy          1.0570000000   3.1412413909
                          6       1    3dxz          1.0570000000   3.1412413909
                          6       1    3dy2          1.0570000000   1.8135965626
                          6       1    3dyz          1.0570000000   3.1412413909
                          6       1    3dz2          1.0570000000   1.8135965626

       Atomic covalent radius [Angstrom]:                                  0.320

       Atomic van der Waals radius [Angstrom]:                             1.090

     GTH Potential information for                                   GTH-BLYP-q1

       Description:                       Goedecker-Teter-Hutter pseudopotential
                                           Goedecker et al., PRB 54, 1703 (1996)
                                          Hartwigsen et al., PRB 58, 3641 (1998)
                                                      Krack, TCA 114, 145 (2005)

       Gaussian exponent of the core charge distribution:              12.500000
       Electronic configuration (s p d ...):                                   1

       Parameters of the local part of the GTH pseudopotential:

                          rloc        C1          C2          C3          C4
                        0.200000   -4.195961    0.730498

  2. Atomic kind: N                                     Number of atoms:       2

     Orbital Basis Set                                              cc-TZV2P-GTH

       Number of orbital shell sets:                                           6
       Number of orbital shells:                                               9
       Number of primitive Cartesian functions:                                8
       Number of Cartesian basis functions:                                   34
       Number of spherical basis functions:                                   29
       Norm type:                                                              2

       Normalised Cartesian orbitals:

                        Set   Shell   Orbital            Exponent    Coefficient

                          1       1    2s            7.6227447102   1.1683362138
                                                     2.7970605447   0.5851340275
                                                     0.9909765447  -0.9621671222

                          1       2    3px           7.6227447102  -1.8749585227
                                                     2.7970605447  -1.7143128677
                                                     0.9909765447  -0.9522024194
                          1       2    3py           7.6227447102  -1.8749585227
                                                     2.7970605447  -1.7143128677
                                                     0.9909765447  -0.9522024194
                          1       2    3pz           7.6227447102  -1.8749585227
                                                     2.7970605447  -1.7143128677
                                                     0.9909765447  -0.9522024194

                          2       1    2s            0.3417314862   0.3185472343

                          2       2    3px           0.3417314862   0.3724314364
                          2       2    3py           0.3417314862   0.3724314364
                          2       2    3pz           0.3417314862   0.3724314364

                          3       1    2s            0.1116822743   0.1376886936

                          3       2    3px           0.1116822743   0.0920280881
                          3       2    3py           0.1116822743   0.0920280881
                          3       2    3pz           0.1116822743   0.0920280881

                          4       1    3dx2          1.6540000000   3.9705127077
                          4       1    3dxy          1.6540000000   6.8771297418
                          4       1    3dxz          1.6540000000   6.8771297418
                          4       1    3dy2          1.6540000000   3.9705127077
                          4       1    3dyz          1.6540000000   6.8771297418
                          4       1    3dz2          1.6540000000   3.9705127077

                          5       1    3dx2          0.4690000000   0.4374837549
                          5       1    3dxy          0.4690000000   0.7577440909
                          5       1    3dxz          0.4690000000   0.7577440909
                          5       1    3dy2          0.4690000000   0.4374837549
                          5       1    3dyz          0.4690000000   0.7577440909
                          5       1    3dz2          0.4690000000   0.4374837549

                          6       1    4fx3          1.0930000000   1.7982489446
                          6       1    4fx2y         1.0930000000   4.0210068805
                          6       1    4fx2z         1.0930000000   4.0210068805
                          6       1    4fxy2         1.0930000000   4.0210068805
                          6       1    4fxyz         1.0930000000   6.9645882147
                          6       1    4fxz2         1.0930000000   4.0210068805
                          6       1    4fy3          1.0930000000   1.7982489446
                          6       1    4fy2z         1.0930000000   4.0210068805
                          6       1    4fyz2         1.0930000000   4.0210068805
                          6       1    4fz3          1.0930000000   1.7982489446

       Atomic covalent radius [Angstrom]:                                  0.750

       Atomic van der Waals radius [Angstrom]:                             1.550

     GTH Potential information for                                   GTH-BLYP-q5

       Description:                       Goedecker-Teter-Hutter pseudopotential
                                           Goedecker et al., PRB 54, 1703 (1996)
                                          Hartwigsen et al., PRB 58, 3641 (1998)
                                                      Krack, TCA 114, 145 (2005)

       Gaussian exponent of the core charge distribution:               6.248753
       Electronic configuration (s p d ...):                               2   3

       Parameters of the local part of the GTH pseudopotential:

                          rloc        C1          C2          C3          C4
                        0.282871  -12.736467    1.951079

       Parameters of the non-local part of the GTH pseudopotential:

                   l      r(l)      h(i,j,l)

                   0    0.255234   13.678932
                   1    0.243133

  3. Atomic kind: C                                     Number of atoms:       4

     Orbital Basis Set                                              cc-TZV2P-GTH

       Number of orbital shell sets:                                           6
       Number of orbital shells:                                               9
       Number of primitive Cartesian functions:                                8
       Number of Cartesian basis functions:                                   34
       Number of spherical basis functions:                                   29
       Norm type:                                                              2

       Normalised Cartesian orbitals:

                        Set   Shell   Orbital            Exponent    Coefficient

                          1       1    2s            5.3685662937   0.9162048416
                                                     1.9830691554   0.4639889320
                                                     0.6978346167  -0.7415850946

                          1       2    3px           5.3685662937  -1.1419917630
                                                     1.9830691554  -1.0896412021
                                                     0.6978346167  -0.6244689575
                          1       2    3py           5.3685662937  -1.1419917630
                                                     1.9830691554  -1.0896412021
                                                     0.6978346167  -0.6244689575
                          1       2    3pz           5.3685662937  -1.1419917630
                                                     1.9830691554  -1.0896412021
                                                     0.6978346167  -0.6244689575

                          2       1    2s            0.2430968816   0.2467428820

                          2       2    3px           0.2430968816   0.2433124449
                          2       2    3py           0.2430968816   0.2433124449
                          2       2    3pz           0.2430968816   0.2433124449

                          3       1    2s            0.0812865018   0.1084985459

                          3       2    3px           0.0812865018   0.0618675802
                          3       2    3py           0.0812865018   0.0618675802
                          3       2    3pz           0.0812865018   0.0618675802

                          4       1    3dx2          1.0970000000   1.9354014160
                          4       1    3dxy          1.0970000000   3.3522135855
                          4       1    3dxz          1.0970000000   3.3522135855
                          4       1    3dy2          1.0970000000   1.9354014160
                          4       1    3dyz          1.0970000000   3.3522135855
                          4       1    3dz2          1.0970000000   1.9354014160

                          5       1    3dx2          0.3180000000   0.2216444782
                          5       1    3dxy          0.3180000000   0.3838994974
                          5       1    3dxz          0.3180000000   0.3838994974
                          5       1    3dy2          0.3180000000   0.2216444782
                          5       1    3dyz          0.3180000000   0.3838994974
                          5       1    3dz2          0.3180000000   0.2216444782

                          6       1    4fx3          0.7610000000   0.7962875534
                          6       1    4fx2y         0.7610000000   1.7805530991
                          6       1    4fx2z         0.7610000000   1.7805530991
                          6       1    4fxy2         0.7610000000   1.7805530991
                          6       1    4fxyz         0.7610000000   3.0840084332
                          6       1    4fxz2         0.7610000000   1.7805530991
                          6       1    4fy3          0.7610000000   0.7962875534
                          6       1    4fy2z         0.7610000000   1.7805530991
                          6       1    4fyz2         0.7610000000   1.7805530991
                          6       1    4fz3          0.7610000000   0.7962875534

       Atomic covalent radius [Angstrom]:                                  0.770

       Atomic van der Waals radius [Angstrom]:                             1.700

     GTH Potential information for                                   GTH-BLYP-q4

       Description:                       Goedecker-Teter-Hutter pseudopotential
                                           Goedecker et al., PRB 54, 1703 (1996)
                                          Hartwigsen et al., PRB 58, 3641 (1998)
                                                      Krack, TCA 114, 145 (2005)

       Gaussian exponent of the core charge distribution:               4.374886
       Electronic configuration (s p d ...):                               2   2

       Parameters of the local part of the GTH pseudopotential:

                          rloc        C1          C2          C3          C4
                        0.338066   -9.136269    1.429260

       Parameters of the non-local part of the GTH pseudopotential:

                   l      r(l)      h(i,j,l)

                   0    0.302322    9.665512
                   1    0.286379


 MOLECULE KIND INFORMATION


 All atoms are their own molecule, skipping detailed information


 TOTAL NUMBERS AND MAXIMUM NUMBERS

  Total number of            - Atomic kinds:                                   3
                             - Atoms:                                         10
                             - Shell sets:                                    60
                             - Shells:                                        78
                             - Primitive Cartesian functions:                 80
                             - Cartesian basis functions:                    264
                             - Spherical basis functions:                    230

  Maximum angular momentum of- Orbital basis functions:                        3
                             - Local part of the GTH pseudopotential:          2
                             - Non-local part of the GTH pseudopotential:      0


 MODULE QUICKSTEP:  ATOMIC COORDINATES IN angstrom

 Atom  Kind  Element       X           Y           Z          Z(eff)       Mass
    1   1 H    1       7.447082    9.565827    8.753345       1.0000      1.0079
    2   2 N    7       7.500000    7.500000    6.096915       5.0000     14.0067
    3   2 N    7       7.500000    7.500000    8.903085       5.0000     14.0067
    4   3 C    6       7.500000    8.630682    6.803405       4.0000     12.0107
    5   3 C    6       7.500000    6.369318    6.803405       4.0000     12.0107
    6   3 C    6       7.500000    6.369318    8.196595       4.0000     12.0107
    7   3 C    6       7.500000    8.630682    8.196595       4.0000     12.0107
    8   1 H    1       7.500000    9.565827    6.246655       1.0000      1.0079
    9   1 H    1       7.500000    5.434173    6.246655       1.0000      1.0079
   10   1 H    1       7.500000    5.434173    8.753345       1.0000      1.0079




 SCF PARAMETERS         Density guess:                                   RESTART
                        --------------------------------------------------------
                        max_scf:                                              80
                        max_scf_history:                                       0
                        max_diis:                                              4
                        --------------------------------------------------------
                        eps_scf:                                        1.00E-05
                        eps_scf_history:                                0.00E+00
                        eps_diis:                                       1.00E-01
                        eps_eigval:                                     1.00E-05
                        --------------------------------------------------------
                        level_shift [a.u.]:                             0.000000
                        added MOs                                       215    0
                        --------------------------------------------------------
                        Mixing method:                           DIRECT_P_MIXING
                        --------------------------------------------------------
                        No outer SCF

 PW_GRID| Information for grid number                                          1
 PW_GRID| Grid distributed over                                    14 processors
 PW_GRID| Real space group dimensions                                    14    1
 PW_GRID| the grid is blocked:                                                NO
 PW_GRID| Cutoff [a.u.]                                                    200.0
 PW_GRID| spherical cutoff:                                                   NO
 PW_GRID|   Bounds   1            -96      95                Points:         192
 PW_GRID|   Bounds   2            -96      95                Points:         192
 PW_GRID|   Bounds   3            -96      95                Points:         192
 PW_GRID| Volume element (a.u.^3)  0.3218E-02     Volume (a.u.^3)     22775.6292
 PW_GRID| Grid span                                                    FULLSPACE
 PW_GRID|   Distribution                         Average         Max         Min
 PW_GRID|   G-Vectors                           505563.4      505728      505536
 PW_GRID|   G-Rays                                2633.1        2634        2633
 PW_GRID|   Real Space Points                   505563.4      516096      479232

 PW_GRID| Information for grid number                                          2
 PW_GRID| Number of the reference grid                                         1
 PW_GRID| Grid distributed over                                    14 processors
 PW_GRID| Real space group dimensions                                    14    1
 PW_GRID| the grid is blocked:                                                NO
 PW_GRID| Cutoff [a.u.]                                                     66.7
 PW_GRID| spherical cutoff:                                                   NO
 PW_GRID|   Bounds   1            -54      53                Points:         108
 PW_GRID|   Bounds   2            -54      53                Points:         108
 PW_GRID|   Bounds   3            -54      53                Points:         108
 PW_GRID| Volume element (a.u.^3)  0.1808E-01     Volume (a.u.^3)     22775.6292
 PW_GRID| Grid span                                                    FULLSPACE
 PW_GRID|   Distribution                         Average         Max         Min
 PW_GRID|   G-Vectors                            89979.4       90072       89964
 PW_GRID|   G-Rays                                 833.1         834         833
 PW_GRID|   Real Space Points                    89979.4       93312       81648

 PW_GRID| Information for grid number                                          3
 PW_GRID| Number of the reference grid                                         1
 PW_GRID| Grid distributed over                                    14 processors
 PW_GRID| Real space group dimensions                                    14    1
 PW_GRID| the grid is blocked:                                                NO
 PW_GRID| Cutoff [a.u.]                                                     22.2
 PW_GRID| spherical cutoff:                                                   NO
 PW_GRID|   Bounds   1            -32      31                Points:          64
 PW_GRID|   Bounds   2            -32      31                Points:          64
 PW_GRID|   Bounds   3            -32      31                Points:          64
 PW_GRID| Volume element (a.u.^3)  0.8688E-01     Volume (a.u.^3)     22775.6292
 PW_GRID| Grid span                                                    FULLSPACE
 PW_GRID|   Distribution                         Average         Max         Min
 PW_GRID|   G-Vectors                            18724.6       18816       18624
 PW_GRID|   G-Rays                                 292.6         294         291
 PW_GRID|   Real Space Points                    18724.6       20480       16384

 PW_GRID| Information for grid number                                          4
 PW_GRID| Number of the reference grid                                         1
 PW_GRID| Grid distributed over                                    14 processors
 PW_GRID| Real space group dimensions                                    14    1
 PW_GRID| the grid is blocked:                                                NO
 PW_GRID| Cutoff [a.u.]                                                      7.4
 PW_GRID| spherical cutoff:                                                   NO
 PW_GRID|   Bounds   1            -18      17                Points:          36
 PW_GRID|   Bounds   2            -18      17                Points:          36
 PW_GRID|   Bounds   3            -18      17                Points:          36
 PW_GRID| Volume element (a.u.^3)  0.4882         Volume (a.u.^3)     22775.6292
 PW_GRID| Grid span                                                    FULLSPACE
 PW_GRID|   Distribution                         Average         Max         Min
 PW_GRID|   G-Vectors                             3332.6        3384        3276
 PW_GRID|   G-Rays                                  92.6          94          91
 PW_GRID|   Real Space Points                     3332.6        3888        2592

 PW_GRID| Information for grid number                                          5
 PW_GRID| Number of the reference grid                                         1
 PW_GRID| Grid distributed over                                    14 processors
 PW_GRID| Real space group dimensions                                    14    1
 PW_GRID| the grid is blocked:                                                NO
 PW_GRID| Cutoff [a.u.]                                                      2.5
 PW_GRID| spherical cutoff:                                                   NO
 PW_GRID|   Bounds   1            -12      11                Points:          24
 PW_GRID|   Bounds   2            -12      11                Points:          24
 PW_GRID|   Bounds   3            -12      11                Points:          24
 PW_GRID| Volume element (a.u.^3)   1.648         Volume (a.u.^3)     22775.6292
 PW_GRID| Grid span                                                    FULLSPACE
 PW_GRID|   Distribution                         Average         Max         Min
 PW_GRID|   G-Vectors                              987.4        1008         984
 PW_GRID|   G-Rays                                  41.1          42          41
 PW_GRID|   Real Space Points                      987.4        1152         576

 POISSON| Solver                                                         WAVELET
 POISSON| Wavelet| Scaling function                                           40
 POISSON| Periodicity                                                       NONE

 RS_GRID| Information for grid number                                          1
 RS_GRID|   Bounds   1            -96      95                Points:         192
 RS_GRID|   Bounds   2            -96      95                Points:         192
 RS_GRID|   Bounds   3            -96      95                Points:         192
 RS_GRID| Real space distribution over                                  2 groups
 RS_GRID| Real space distribution along direction                              2
 RS_GRID| Border size                                                         26
 RS_GRID| Real space distribution over                                  7 groups
 RS_GRID| Real space distribution along direction                              3
 RS_GRID| Border size                                                         26
 RS_GRID|   Distribution                         Average         Max         Min
 RS_GRID|   Planes                                 148.0         148         148
 RS_GRID|   Distribution                         Average         Max         Min
 RS_GRID|   Planes                                  79.4          80          79

 RS_GRID| Information for grid number                                          2
 RS_GRID|   Bounds   1            -54      53                Points:         108
 RS_GRID|   Bounds   2            -54      53                Points:         108
 RS_GRID|   Bounds   3            -54      53                Points:         108
 RS_GRID| Real space fully replicated
 RS_GRID| Group size                                                           1

 RS_GRID| Information for grid number                                          3
 RS_GRID|   Bounds   1            -32      31                Points:          64
 RS_GRID|   Bounds   2            -32      31                Points:          64
 RS_GRID|   Bounds   3            -32      31                Points:          64
 RS_GRID| Real space fully replicated
 RS_GRID| Group size                                                           1

 RS_GRID| Information for grid number                                          4
 RS_GRID|   Bounds   1            -18      17                Points:          36
 RS_GRID|   Bounds   2            -18      17                Points:          36
 RS_GRID|   Bounds   3            -18      17                Points:          36
 RS_GRID| Real space fully replicated
 RS_GRID| Group size                                                           1

 RS_GRID| Information for grid number                                          5
 RS_GRID|   Bounds   1            -12      11                Points:          24
 RS_GRID|   Bounds   2            -12      11                Points:          24
 RS_GRID|   Bounds   3            -12      11                Points:          24
 RS_GRID| Real space fully replicated
 RS_GRID| Group size                                                           1

  HFX_INFO| Replica ID:                                                        1
  HFX_INFO| FRACTION:                                               1.0000000000
  HFX_INFO| Interaction Potential:                                        MIX_CL
  HFX_INFO| Omega:                                                  0.3300000000
  HFX_INFO| SCALE_COULOMB:                                          0.1900000000
  HFX_INFO| SCALE_LONGRANGE:                                        0.3100000000
  HFX_INFO| EPS_SCHWARZ:                                                 1.0E-12
  HFX_INFO| EPS_SCHWARZ_FORCES                                           1.0E-06
  HFX_INFO| EPS_STORAGE_SCALING:                                         1.0E+00
  HFX_INFO| NBINS:                                                            64
  HFX_INFO| BLOCK_SIZE:                                                        1
  HFX_INFO| Number of periodic shells considered:                           NONE
  HFX_INFO| Number of periodic cells considered:                            NONE


 Number of electrons:                                                         30
 Number of occupied orbitals:                                                 15
 Number of molecular orbitals:                                               230

 Number of orbital functions:                                                230
 Number of independent orbital functions:                                    230

 Extrapolation method: initial_guess


 SCF WAVEFUNCTION OPTIMIZATION

  Step     Update method      Time    Convergence         Total energy    Change
  ------------------------------------------------------------------------------

  HFX_MEM_INFO| Est. max. program size before HFX [MiB]:                     371
  HFX_MEM_INFO| Number of cart. primitive ERI's calculated:           1525723060
  HFX_MEM_INFO| Number of sph. ERI's calculated:                       430516882
  HFX_MEM_INFO| Number of sph. ERI's stored in-core:                   430516882
  HFX_MEM_INFO| Number of sph. ERI's stored on disk:                           0
  HFX_MEM_INFO| Number of sph. ERI's calculated on the fly:                    0
  HFX_MEM_INFO| Total memory consumption ERI's RAM [MiB]:                   1531
  HFX_MEM_INFO| Whereof max-vals [MiB]:                                        2
  HFX_MEM_INFO| Total compression factor ERI's RAM:                         2.15
  HFX_MEM_INFO| Total memory consumption ERI's disk [MiB]:                     0
  HFX_MEM_INFO| Total compression factor ERI's disk:                        0.00
  HFX_MEM_INFO| Size of density/Fock matrix [MiB]:                             0
  HFX_MEM_INFO| Size of buffers [MiB]:                                         0
  HFX_MEM_INFO| Est. max. program size after HFX  [MiB]:                     486

     1 P_Mix/Diag. 0.40E+00    5.1     0.00567345       -44.1795284888 -4.42E+01
     2 P_Mix/Diag. 0.40E+00    1.8     0.00383743       -44.1795873279 -5.88E-05
     3 DIIS/Diag.  0.69E-03    1.8     0.00325120       -44.1796272164 -3.99E-05
     4 DIIS/Diag.  0.15E-03    1.8     0.00003323       -44.1796984003 -7.12E-05
     5 DIIS/Diag.  0.20E-03    1.9     0.00009909       -44.1796983369  6.34E-08
     6 DIIS/Diag.  0.16E-03    2.0     0.00011055       -44.1796984360 -9.91E-08
     7 DIIS/Diag.  0.19E-04    1.8     0.00000901       -44.1796985249 -8.89E-08

  *** SCF run converged in     7 steps ***


  Electronic density on regular grids:        -30.0000000000        0.0000000000
  Core density on regular grids:               30.0000000000       -0.0000000000
  Total charge density on r-space grids:       -0.0000000000
  Total charge density g-space grids:          -0.0000000000

  Overlap energy of the core charge distribution:               0.00000205747545
  Self energy of the core charge distribution:               -108.90866083955123
  Core Hamiltonian energy:                                     33.21545433449955
  Hartree energy:                                              44.07030899332928
  Exchange-correlation energy:                                 -8.71972895361540
  Hartree-Fock Exchange energy:                                -3.83707411708000

  Total energy:                                               -44.17969852494236

 !-----------------------------------------------------------------------------!
                     Mulliken Population Analysis

 #  Atom  Element  Kind  Atomic population                           Net charge
       1     H        1          0.933635                              0.066365
       2     N        2          5.273499                             -0.273499
       3     N        2          5.273241                             -0.273241
       4     C        3          3.929719                              0.070281
       5     C        3          3.929894                              0.070106
       6     C        3          3.929821                              0.070179
       7     C        3          3.929957                              0.070043
       8     H        1          0.933492                              0.066508
       9     H        1          0.933377                              0.066623
      10     H        1          0.933366                              0.066634
 # Total charge                             30.000000                 -0.000000

 !-----------------------------------------------------------------------------!

 !-----------------------------------------------------------------------------!
                           Hirshfeld Charges

  #Atom  Element  Kind  Ref Charge     Population                    Net charge
      1       H      1       1.000          0.548                         0.452
      2       N      2       5.000          5.329                        -0.329
      3       N      2       5.000          5.329                        -0.329
      4       C      3       4.000          4.284                        -0.284
      5       C      3       4.000          4.284                        -0.284
      6       C      3       4.000          4.284                        -0.284
      7       C      3       4.000          4.284                        -0.284
      8       H      1       1.000          0.548                         0.452
      9       H      1       1.000          0.548                         0.452
     10       H      1       1.000          0.548                         0.452

  Total Charge                                                            0.014
 !-----------------------------------------------------------------------------!

  HFX_MEM_INFO| Number of cart. primitive DERIV's calculated:         9065440308
  HFX_MEM_INFO| Number of sph. DERIV's calculated:                    2787667884
  HFX_MEM_INFO| Number of sph. DERIV's stored in-core:                         0
  HFX_MEM_INFO| Number of sph. DERIV's calculated on the fly:         2787667884
  HFX_MEM_INFO| Total memory consumption DERIV's RAM [MiB]:                    0
  HFX_MEM_INFO| Whereof max-vals [MiB]:                                        1
  HFX_MEM_INFO| Total compression factor DERIV's RAM:                       0.00


 ENERGY| Total FORCE_EVAL ( QS ) energy [a.u.]:              -44.179698525476532

 -------------------------------------------------------------------------------
 -                                                                             -
 -                                DBCSR STATISTICS                             -
 -                                                                             -
 -------------------------------------------------------------------------------
 COUNTER                                    TOTAL       BLAS       SMM       ACC
 flops    14 x    32 x    14               200704       0.0%    100.0%      0.0%
 flops    14 x    14 x     6               211680       0.0%    100.0%      0.0%
 flops    14 x    29 x     6               526176       0.0%    100.0%      0.0%
 flops    29 x    14 x     6               526176       0.0%    100.0%      0.0%
 flops    29 x    32 x    14               623616       0.0%    100.0%      0.0%
 flops    14 x    32 x    29               623616       0.0%    100.0%      0.0%
 flops    29 x    29 x     6              1907388       0.0%    100.0%      0.0%
 flops    29 x    32 x    29              1937664       0.0%    100.0%      0.0%
 flops    14 x    14 x    32              7902720       0.0%    100.0%      0.0%
 flops    14 x    29 x    32             19643904       0.0%    100.0%      0.0%
 flops    29 x    14 x    32             19643904       0.0%    100.0%      0.0%
 flops    29 x    29 x    32             71209152       0.0%    100.0%      0.0%
 flops inhomo. stacks                           0       0.0%      0.0%      0.0%
 flops total                       124.956700E+06       0.0%    100.0%      0.0%
 flops max/rank                     22.890060E+06       0.0%    100.0%      0.0%
 matmuls inhomo. stacks                         0       0.0%      0.0%      0.0%
 matmuls total                               4060       0.0%    100.0%      0.0%
 number of processed stacks                  2488       0.0%    100.0%      0.0%
 average stack size                                     0.0       1.6       0.0
 marketing flops                    15.869999E+06
 -------------------------------------------------------------------------------
 # multiplications                             10
 max memory usage/rank             548.470784E+06
 # max total images/rank                        7
 # max 3D layers                                1
 # MPI messages exchanged                    2660
 MPI messages size (bytes):
  total size                        29.259680E+06
  min size                           0.000000E+00
  max size                          36.864000E+03
  average size                      10.999880E+03
 MPI breakdown and total messages size (bytes):
             size <=      128                1234                        0
       128 < size <=     8192                 298                  1447904
      8192 < size <=    32768                 714                 12674496
     32768 < size <=   131072                 414                 15137280
    131072 < size <=  4194304                   0                        0
   4194304 < size <= 16777216                   0                        0
  16777216 < size                               0                        0
 -------------------------------------------------------------------------------

 *** WARNING in dbcsr_mm.F:290 :: Using a non-square number of MPI ranks ***
 *** might lead to poor performance. Used ranks: 14 Suggested: 16 25     ***

 -------------------------------------------------------------------------------
 -                                                                             -
 -                      DBCSR MESSAGE PASSING PERFORMANCE                      -
 -                                                                             -
 -------------------------------------------------------------------------------
 ROUTINE             CALLS      AVE VOLUME [Bytes]
 MP_Bcast               13                     12.
 MP_Allreduce          118                     14.
 MP_Alltoall           340                  22899.
 MP_ISend              516                   7065.
 MP_IRecv              496                   6370.
 -------------------------------------------------------------------------------

 -------------------------------------------------------------------------------
 -                                                                             -
 -                                DBM STATISTICS                               -
 -                                                                             -
 -------------------------------------------------------------------------------
    M  x    N  x    K                                          COUNT     PERCENT
 -------------------------------------------------------------------------------

 -------------------------------------------------------------------------------
 -                                                                             -
 -                                GRID STATISTICS                              -
 -                                                                             -
 -------------------------------------------------------------------------------
 LP    KERNEL             BACKEND                              COUNT     PERCENT
 2     integrate ortho    REF                                   9064      16.45%
 2     collocate ortho    REF                                   8392      15.23%
 3     integrate ortho    REF                                   7113      12.91%
 3     collocate ortho    REF                                   6064      11.01%
 1     integrate ortho    REF                                   5578      10.12%
 1     collocate ortho    REF                                   5376       9.76%
 4     integrate ortho    REF                                   3942       7.15%
 4     collocate ortho    REF                                   3184       5.78%
 0     collocate ortho    REF                                   1616       2.93%
 0     integrate ortho    REF                                   1616       2.93%
 5     integrate ortho    REF                                   1262       2.29%
 5     collocate ortho    REF                                    864       1.57%
 0     collocate general  REF                                    280       0.51%
 6     integrate ortho    REF                                    276       0.50%
 6     collocate ortho    REF                                    168       0.30%
 0     integrate general  REF                                    140       0.25%
 1     integrate general  REF                                    140       0.25%
 7     integrate ortho    REF                                     21       0.04%
 -------------------------------------------------------------------------------

 MEMORY| Estimated peak process memory [MiB]                                 534

 -------------------------------------------------------------------------------
 ----                             MULTIGRID INFO                            ----
 -------------------------------------------------------------------------------
 count for grid        1:          39651          cutoff [a.u.]          200.00
 count for grid        2:          31745          cutoff [a.u.]           66.67
 count for grid        3:          13189          cutoff [a.u.]           22.22
 count for grid        4:           2075          cutoff [a.u.]            7.41
 count for grid        5:            140          cutoff [a.u.]            2.47
 total gridlevel count  :          86800

 -------------------------------------------------------------------------------
 -                                                                             -
 -                         MESSAGE PASSING PERFORMANCE                         -
 -                                                                             -
 -------------------------------------------------------------------------------

 ROUTINE             CALLS      AVE VOLUME [Bytes]
 MP_Group                5
 MP_Bcast              313                 487854.
 MP_Allreduce          585                   8375.
 MP_Sync                82
 MP_Alltoall           262               18071191.
 MP_SendRecv            36                 294912.
 MP_ISendRecv         1183                 186020.
 MP_Wait              1624
 MP_comm_split           7
 MP_ISend              378                1002008.
 MP_IRecv              378                1001618.
 MP_Recv                 7                  58880.
 -------------------------------------------------------------------------------


 -------------------------------------------------------------------------------
 -                                                                             -
 -                           R E F E R E N C E S                               -
 -                                                                             -
 -------------------------------------------------------------------------------
 
 CP2K version 2022.2, the CP2K developers group (2022).
 CP2K is freely available from https://www.cp2k.org/ .

 Kuehne,Thomas D.; Iannuzzi,Marcella; Del Ben,Mauro;
 Rybkin,Vladimir V.; Seewald,Patrick; Stein,Frederick; Laino,Teodoro;
 Khaliullin,Rustam Z.; Schuett,Ole; Schiffmann,Florian; Golze,Dorothea;
 Wilhelm,Jan; Chulkov,Sergey; Bani-Hashemian,Mohammad Hossein;
 Weber,Valery; Borstnik,Urban; Taillefumier,Mathieu;
 Jakobovits,Alice Shoshana; Lazzaro,Alfio; Pabst,Hans; Mueller,Tiziano;
 Schade,Robert; Guidon,Manuel; Andermatt,Samuel; Holmberg,Nico;
 Schenter,Gregory K.; Hehn,Anna; Bussy,Augustin; Belleflamme,Fabian;
 Tabacchi,Gloria; Gloess,Andreas; Lass,Michael; Bethune,Iain;
 Mundy,Christopher J.; Plessl,Christian; Watkins,Matt;
 VandeVondele,Joost; Krack,Matthias; Hutter,Juerg. 
 The Journal of Chemical Physics, 152 (19), (2020). 
 CP2K: An electronic structure and molecular dynamics software package -
 Quickstep: Efficient and accurate electronic structure calculations.
 https://doi.org/10.1063/5.0007045

 Lehtola, S; Steigemann, C; Oliveira, MJT; Marques, MAL. 
 SoftwareX, 7, 1-5 (2018). 
 Recent developments in libxc - A comprehensive library of functionals
 for density functional theory.
 https://doi.org/10.1016/j.softx.2017.11.002

 Schuett, Ole; Messmer, Peter; Hutter, Juerg; VandeVondele, Joost. 
 Electronic Structure Calculations on Graphics Processing Units, John
 Wiley & Sons, Ltd, 173-190 (2016). 
 GPU-Accelerated Sparse Matrix-Matrix Multiplication for
 Linear Scaling Density Functional Theory.
 https://doi.org/10.1002/9781118670712.ch8

 Heinecke, A; Henry, G; Hutchinson, M; Pabst, H. 
 Proceedings of Intl. Supercomputing Conference, 981-991 (2016). 
 LIBXSMM: Accelerating Small Matrix Multiplications
 by Runtime Code Generation.
 https://doi.org/10.1109/SC.2016.83

 Borstnik, U; VandeVondele, J; Weber, V; Hutter, J. 
 PARALLEL COMPUTING, 40 (5-6), 47-58 (2014). 
 Sparse matrix multiplication: The distributed block-compressed sparse
 row library.
 https://doi.org/10.1016/j.parco.2014.03.012

 Hutter, J; Iannuzzi, M; Schiffmann, F; VandeVondele, J. 
 WIREs Comput Mol Sci., 4 (1), 15-25 (2014). 
 CP2K: atomistic simulations of condensed matter systems.
 https://doi.org/10.1002/wcms.1159

 Marek, A; Blum, V; Johanni, R; Havu, V; Lang, B; Auckenthaler, T;
 Heinecke, A; Bungartz, H; Lederer, H. 
 Journal of Physics: Condensed Matter, 26 (21), (2014). 
 The ELPA library: scalable parallel eigenvalue solutions for
 electronic structure
 theory and computational science.
 https://doi.org/10.1088/0953-8984/26/21/213201

 Marques, MAL; Oliveira, MJT; Burnus, T. 
 COMPUTER PHYSICS COMMUNICATIONS, 183 (10), 2272-2281 (2012). 
 LIBXC: A library of exchange and correlation functionals for density
 functional theory.
 https://doi.org/10.1016/j.cpc.2012.05.007

 Guidon, M; Hutter, J; VandeVondele, J. 
 JOURNAL OF CHEMICAL THEORY AND COMPUTATION, 5 (11), 3010-3021 (2009). 
 Robust Periodic Hartree-Fock Exchange for Large-Scale Simulations Using
 Gaussian Basis Sets.
 https://doi.org/10.1021/ct900494g

 Guidon, M; Schiffmann, F; Hutter, J; VandeVondele, J. 
 JOURNAL OF CHEMICAL PHYSICS, 128 (21), 214104 (2008). 
 Ab initio molecular dynamics using hybrid density functionals.
 https://doi.org/10.1063/1.2931945

 Genovese, L; Deutsch, T; Goedecker, S. 
 JOURNAL OF CHEMICAL PHYSICS, 127 (5), 054704 (2007). 
 Efficient and accurate three-dimensional Poisson solver for surface
 problems.
 https://doi.org/10.1063/1.2754685

 Genovese, L; Deutsch, T; Neelov, A; Goedecker, S; Beylkin, G. 
 JOURNAL OF CHEMICAL PHYSICS, 125 (7), 074105 (2006). 
 Efficient solution of Poisson's equation with free boundary conditions.
 https://doi.org/10.1063/1.2335442

 Krack, M. 
 THEORETICAL CHEMISTRY ACCOUNTS, 114 (1-3), 145-152 (2005). 
 Pseudopotentials for H to Kr optimized for gradient-corrected
 exchange-correlation functionals.
 https://doi.org/10.1007/s00214-005-0655-y

 VandeVondele, J; Krack, M; Mohamed, F; Parrinello, M; Chassaing, T;
 Hutter, J. COMPUTER PHYSICS COMMUNICATIONS, 167 (2), 103-128 (2005). 
 QUICKSTEP: Fast and accurate density functional calculations using a
 mixed Gaussian and plane waves approach.
 https://doi.org/10.1016/j.cpc.2004.12.014

 Frigo, M; Johnson, SG. 
 PROCEEDINGS OF THE IEEE, 93 (2), 216-231 (2005). 
 The design and implementation of FFTW3.
 https://doi.org/10.1109/JPROC.2004.840301

 Hartwigsen, C; Goedecker, S; Hutter, J. 
 PHYSICAL REVIEW B, 58 (7), 3641-3662 (1998). 
 Relativistic separable dual-space Gaussian pseudopotentials from H to Rn.
 https://doi.org/10.1103/PhysRevB.58.3641

 Lippert, G; Hutter, J; Parrinello, M. 
 MOLECULAR PHYSICS, 92 (3), 477-487 (1997). 
 A hybrid Gaussian and plane wave density functional scheme.
 https://doi.org/10.1080/002689797170220

 Goedecker, S; Teter, M; Hutter, J. 
 PHYSICAL REVIEW B, 54 (3), 1703-1710 (1996). 
 Separable dual-space Gaussian pseudopotentials.
 https://doi.org/10.1103/PhysRevB.54.1703


 -------------------------------------------------------------------------------
 -                                                                             -
 -                                T I M I N G                                  -
 -                                                                             -
 -------------------------------------------------------------------------------
 SUBROUTINE                       CALLS  ASD         SELF TIME        TOTAL TIME
                                MAXIMUM       AVERAGE  MAXIMUM  AVERAGE  MAXIMUM
 CP2K                                 1  1.0    0.039    0.060   27.355   27.356
 qs_forces                            1  2.0    0.000    0.000   27.138   27.138
 rebuild_ks_matrix                    9  6.8    0.000    0.000   24.598   24.598
 qs_ks_build_kohn_sham_matrix         9  7.8    0.001    0.001   24.598   24.598
 qs_energies                          1  3.0    0.000    0.000   18.342   18.342
 scf_env_do_scf                       1  4.0    0.000    0.000   16.421   16.421
 scf_env_do_scf_inner_loop            7  5.0    0.000    0.000   16.421   16.421
 qs_ks_update_qs_env                  8  6.1    0.000    0.000   15.864   15.865
 hfx_ks_matrix                        9  8.8    0.000    0.000   11.820   11.830
 pw_transfer                        193 11.0    0.013    0.014    9.189   10.464
 fft_wrap_pw1pw2                    193 12.0    0.002    0.002    9.176   10.451
 fft_wrap_pw1pw2_200                125 13.3    0.513    0.532    8.923   10.163
 qs_ks_update_qs_env_forces           1  3.0    0.000    0.000    8.734    8.734
 fft3d_ps                           193 14.0    3.301    3.493    7.277    8.607
 qs_vxc_create                        9  8.8    0.000    0.000    7.953    7.990
 xc_vxc_pw_create                     9  9.8    0.043    0.052    7.953    7.990
 derivatives_four_center              1  7.0    0.002    0.005    7.222    7.225
 derivatives_four_center_main         1  8.0    0.000    0.000    7.208    7.208
 derivatives_four_center_bin         99  9.0    6.877    7.208    6.877    7.208
 xc_pw_derive                        54 11.8    0.001    0.001    5.063    6.250
 xc_rho_set_and_dset_create           9 10.8    0.041    0.046    4.080    5.234
 xc_pw_divergence                     9 10.8    0.000    0.001    3.697    4.882
 integrate_four_center                9  9.8    0.004    0.004    4.598    4.604
 yz_to_x                             95 14.7    0.737    0.766    2.552    3.807
 mp_alltoall_z22v                   193 16.0    2.363    3.663    2.363    3.663
 integrate_four_center_main           9 10.8    0.001    0.001    2.752    2.978
 integrate_four_center_bin          729 11.8    2.751    2.977    2.751    2.977
 pw_poisson_solve                     9  8.8    0.057    0.062    2.755    2.755
 xc_functional_eval                   9 11.8    0.000    0.000    1.263    2.409
 libxc_lda_eval                       9 12.8    1.263    2.408    1.263    2.409
 qs_rho_update_rho_low                8  6.0    0.000    0.000    1.857    1.858
 calculate_rho_elec                   8  7.0    0.016    0.017    1.857    1.857
 density_rs2pw                        8  8.0    0.001    0.001    1.616    1.642
 scf_post_calculation_gpw             1  4.0    0.000    0.000    1.526    1.526
 write_available_results              1  5.0    0.000    0.000    1.526    1.526
 write_mo_free_results                1  6.0    0.006    0.036    1.526    1.526
 x_to_yz                             98 15.4    0.869    0.895    1.417    1.500
 sum_up_and_integrate                 9  8.8    0.019    0.019    1.383    1.387
 integrate_v_rspace                   9  9.8    0.000    0.000    1.364    1.368
 rs_pw_transfer                      89 10.3    0.001    0.001    1.249    1.282
 potential_pw2rs                      9 10.8    0.002    0.002    1.274    1.278
 mp_sync                             82 10.5    0.867    1.020    0.867    1.020
 ps_wavelet_solve                     9  9.8    0.615    0.671    0.938    0.955
 calc_screening_functions             1 11.0    0.601    0.619    0.906    0.934
 pw_gather_p                         95 13.7    0.790    0.876    0.790    0.876
 mp_sum_lv                           21  4.2    0.331    0.636    0.331    0.636
 pw_scatter_p                        98 14.4    0.580    0.634    0.580    0.634
 -------------------------------------------------------------------------------

 The number of warnings for this run is : 1
 
 -------------------------------------------------------------------------------
  **** **** ******  **  PROGRAM ENDED AT                 2023-12-11 13:58:54.012
 ***** ** ***  *** **   PROGRAM RAN ON                               Workstation
 **    ****   ******    PROGRAM RAN BY                                       max
 ***** **    ** ** **   PROGRAM PROCESS ID                               1733880
  **** **  *******  **  PROGRAM STOPPED IN /home/max/Sync/PhD_TUM/Code/CP2K/Mole
                                           culesAndData/Pyrazine/CAM-B3LYP/cc-TZ
                                           2VP/Vib_Ana/vector=1sign=-
